
----- GAMESS execution script 'rungms' -----
This job is running on host laptop
under operating system Linux at Tue Dec 31 16:14:49 CET 2019
Available scratch disk space (Kbyte units) at beginning of the job is
Filesystem     1K-blocks      Used Available Use% Mounted on
/dev/nvme0n1p2 228311460 209719168   6925044  97% /
GAMESS temporary binary files will be written to /home/charnley/scr
GAMESS supplementary output files will be written to /home/charnley/scr
Copying input file gamess_methane_vib.inp to your run's scratch directory...
cp gamess_methane_vib.inp /home/charnley/scr/gamess_methane_vib.F05
unset echo
/home/charnley/opt/gamess/gamess-github/ddikick.x /home/charnley/opt/gamess/gamess-github/gamess.00.x gamess_methane_vib -ddi 1 1 laptop -scr /home/charnley/scr

 Distributed Data Interface kickoff program.
 Initiating 1 compute processes on 1 nodes to run the following command:
 /home/charnley/opt/gamess/gamess-github/gamess.00.x gamess_methane_vib 

          ******************************************************
          *         GAMESS VERSION = 30 SEP 2018 (R3)         *
          *             FROM IOWA STATE UNIVERSITY             *
          * M.W.SCHMIDT, K.K.BALDRIDGE, J.A.BOATZ, S.T.ELBERT, *
          *   M.S.GORDON, J.H.JENSEN, S.KOSEKI, N.MATSUNAGA,   *
          *          K.A.NGUYEN, S.J.SU, T.L.WINDUS,           *
          *       TOGETHER WITH M.DUPUIS, J.A.MONTGOMERY       *
          *         J.COMPUT.CHEM.  14, 1347-1363(1993)        *
          **************** 64 BIT LINUX VERSION ****************

  SINCE 1993, STUDENTS AND POSTDOCS WORKING AT IOWA STATE UNIVERSITY
  AND ALSO IN THEIR VARIOUS JOBS AFTER LEAVING ISU HAVE MADE IMPORTANT
  CONTRIBUTIONS TO THE CODE:
     IVANA ADAMOVIC, CHRISTINE AIKENS, YURI ALEXEEV, POOJA ARORA,
     ANDREY ASADCHEV, ROB BELL, PRADIPTA BANDYOPADHYAY, JONATHAN BENTZ,
     BRETT BODE, KURT BRORSEN, CALEB CARLIN, GALINA CHABAN, WEI CHEN,
     CHEOL HO CHOI, PAUL DAY, ALBERT DEFUSCO, NUWAN DESILVA, TIM DUDLEY,
     DMITRI FEDOROV, ALEX FINDLATER, GRAHAM FLETCHER, MARK FREITAG,
     KURT GLAESEMANN, ANASTASIA GUNINA,
     DAN KEMP, GRANT MERRILL, NORIYUKI MINEZAWA, JONATHAN MULLIN,
     TAKESHI NAGATA, SEAN NEDD, HEATHER NETZLOFF, BOSILJKA NJEGIC, RYAN OLSON,
     MIKE PAK, BUU PHAM,
     SPENCER PRUITT, LUKE ROSKOP, JIM SHOEMAKER, LYUDMILA SLIPCHENKO,
     TONY SMITH, SAROM SOK LEANG, JIE SONG, TETSUYA TAKETSUGU, SIMON WEBB,
     PENG XU, SOOHAENG YOO, FEDERICO ZAHARIEV

  ADDITIONAL CODE HAS BEEN PROVIDED BY COLLABORATORS IN OTHER GROUPS:
     IOWA STATE UNIVERSITY:
          JOE IVANIC, AARON WEST, LAIMUTIS BYTAUTAS, KLAUS RUEDENBERG
     UNIVERSITY OF TOKYO: KIMIHIKO HIRAO, TAKAHITO NAKAJIMA,
          TAKAO TSUNEDA, MUNEAKI KAMIYA, SUSUMU YANAGISAWA,
          KIYOSHI YAGI, MAHITO CHIBA, SEIKEN TOKURA, NAOAKI KAWAKAMI
     UNIVERSITY OF AARHUS: FRANK JENSEN
     UNIVERSITY OF IOWA: VISVALDAS KAIRYS, HUI LI
     NATIONAL INST. OF STANDARDS AND TECHNOLOGY: WALT STEVENS, DAVID GARMER
     UNIVERSITY OF PISA: BENEDETTA MENNUCCI, JACOPO TOMASI
     UNIVERSITY OF MEMPHIS: HENRY KURTZ, PRAKASHAN KORAMBATH
     UNIVERSITY OF ALBERTA: TOBY ZENG, MARIUSZ KLOBUKOWSKI
     UNIVERSITY OF NEW ENGLAND: MARK SPACKMAN
     MIE UNIVERSITY: HIROAKI UMEDA
     NAT. INST. OF ADVANCED INDUSTRIAL SCIENCE AND TECHNOLOGY: KAZUO KITAURA
     MICHIGAN STATE UNIVERSITY:
          KAROL KOWALSKI, MARTA WLOCH, JEFFREY GOUR, JESSE LUTZ,
          WEI LI, JUN SHEN, J. EMILIANO DEUSTUA, PIOTR PIECUCH
     UNIVERSITY OF MINNESOTA:
          YINAN SHU
     UNIVERSITY OF SILESIA: MONIKA MUSIAL, STANISLAW KUCHARSKI
     FACULTES UNIVERSITAIRES NOTRE-DAME DE LA PAIX:
          OLIVIER QUINET, BENOIT CHAMPAGNE
     UNIVERSITY OF CALIFORNIA - SANTA BARBARA: BERNARD KIRTMAN
     INSTITUTE FOR MOLECULAR SCIENCE:
          KAZUYA ISHIMURA, MICHIO KATOUDA, AND SHIGERU NAGASE
     UNIVERSITY OF NOTRE DAME: ANNA POMOGAEVA, DAN CHIPMAN
     KYUSHU UNIVERSITY:
          HARUYUKI NAKANO,
          FENG LONG GU, JACEK KORCHOWIEC, MARCIN MAKOWSKI, AND YURIKO AOKI,
          HIROTOSHI MORI AND EISAKU MIYOSHI
     PENNSYLVANIA STATE UNIVERSITY:
          TZVETELIN IORDANOV, CHET SWALINA, JONATHAN SKONE,
          SHARON HAMMES-SCHIFFER
     WASEDA UNIVERSITY:
          MASATO KOBAYASHI, TOMOKO AKAMA, TSUGUKI TOUMA,
          TAKESHI YOSHIKAWA, YASUHIRO IKABATA, JUNJI SEINO,
          YUYA NAKAJIMA, HIROMI NAKAI
     NANJING UNIVERSITY: SHUHUA LI
     UNIVERSITY OF NEBRASKA:
          PEIFENG SU, DEJUN SI, NANDUN THELLAMUREGE, YALI WANG, HUI LI
     UNIVERSITY OF ZURICH: ROBERTO PEVERATI, KIM BALDRIDGE
     N. COPERNICUS UNIVERSITY AND JACKSON STATE UNIVERSITY:
          MARIA BARYSZ
     UNIVERSITY OF COPENHAGEN: Jimmy Kromann, CASPER STEINMANN
     TOKYO INSTITUTE OF TECHNOLOGY: HIROYA NAKATA
     NAGOYA UNIVERSITY: YOSHIO NISHIMOTO, STEPHAN IRLE
     MOSCOW STATE UNIVERSITY: VLADIMIR MIRONOV

 EXECUTION OF GAMESS BEGUN Tue Dec 31 16:14:49 2019

            ECHO OF THE FIRST FEW INPUT CARDS -
 INPUT CARD> $basis                                                                         
 INPUT CARD>     gbasis=PM3                                                                 
 INPUT CARD> $end                                                                           
 INPUT CARD>                                                                                
 INPUT CARD> $contrl                                                                        
 INPUT CARD>    scftyp=RHF                                                                  
 INPUT CARD>    runtyp=hessian                                                              
 INPUT CARD>    icharg=0                                                                    
 INPUT CARD>    maxit=60                                                                    
 INPUT CARD> $end                                                                           
 INPUT CARD> $data                                                                          
 INPUT CARD>Title                                                                           
 INPUT CARD>C1                                                                              
 INPUT CARD>C     6.0    0.000000     -0.000000    0.000000                                 
 INPUT CARD>H     1.0    -0.000000     -0.887550    -0.627544                               
 INPUT CARD>H     1.0    -0.000000     0.887550    -0.627544                                
 INPUT CARD>H     1.0    -0.887550     0.000000    0.627544                                 
 INPUT CARD>H     1.0    0.887550     0.000000    0.627544                                  
 INPUT CARD> $end                                                                           
    1000000 WORDS OF MEMORY AVAILABLE

     BASIS OPTIONS
     -------------
     GBASIS=PM3          IGAUSS=       0      POLAR=NONE    
     NDFUNC=       0     NFFUNC=       0     DIFFSP=       F
     NPFUNC=       0      DIFFS=       F     BASNAM=        


     RUN TITLE
     ---------
 Title                                                                           

 THE POINT GROUP OF THE MOLECULE IS C1      
 THE ORDER OF THE PRINCIPAL AXIS IS     0

 ATOM      ATOMIC                      COORDINATES (BOHR)
           CHARGE         X                   Y                   Z
 C           6.0     0.0000000000       -0.0000000000        0.0000000000
 H           1.0    -0.0000000000       -1.6772263004       -1.1858862052
 H           1.0    -0.0000000000        1.6772263004       -1.1858862052
 H           1.0    -1.6772263004        0.0000000000        1.1858862052
 H           1.0     1.6772263004        0.0000000000        1.1858862052

          INTERNUCLEAR DISTANCES (ANGS.)
          ------------------------------

                1 C          2 H          3 H          4 H          5 H     

   1 C       0.0000000    1.0869942 *  1.0869942 *  1.0869942 *  1.0869942 *
   2 H       1.0869942 *  0.0000000    1.7751000 *  1.7750312 *  1.7750312 *
   3 H       1.0869942 *  1.7751000 *  0.0000000    1.7750312 *  1.7750312 *
   4 H       1.0869942 *  1.7750312 *  1.7750312 *  0.0000000    1.7751000 *
   5 H       1.0869942 *  1.7750312 *  1.7750312 *  1.7751000 *  0.0000000  

  * ... LESS THAN  3.000


 TOTAL NUMBER OF BASIS SET SHELLS             =    5
 NUMBER OF CARTESIAN GAUSSIAN BASIS FUNCTIONS =    8
 NUMBER OF ELECTRONS                          =    8
 CHARGE OF MOLECULE                           =    0
 SPIN MULTIPLICITY                            =    1
 NUMBER OF OCCUPIED ORBITALS (ALPHA)          =    4
 NUMBER OF OCCUPIED ORBITALS (BETA )          =    4
 TOTAL NUMBER OF ATOMS                        =    5
 THE NUCLEAR REPULSION ENERGY IS       13.4725418322

 THE PARAMETERS USED IN THIS CALCULATION ARE DESCRIBED IN:

  H: (PM3): J. J. P. STEWART, J. COMP. CHEM.     10, 209 (1989).                
  C: (PM3): J. J. P. STEWART, J. COMP. CHEM.     10, 209 (1989).                

 THERE ARE    1 HEAVY AND    4 LIGHT ATOMS,
 YIELDING A TOTAL OF        46 MOPAC 2E- INTEGRALS.

     $CONTRL OPTIONS
     ---------------
 SCFTYP=RHF          RUNTYP=HESSIAN      EXETYP=RUN     
 MPLEVL=       0     CITYP =NONE         CCTYP =NONE         VBTYP =NONE    
 DFTTYP=NONE         TDDFT =NONE    
 MULT  =       1     ICHARG=       0     NZVAR =       0     COORD =UNIQUE  
 PP    =NONE         RELWFN=NONE         LOCAL =NONE         NUMGRD=       F
 ISPHER=      -1     NOSYM =       0     MAXIT =      60     UNITS =ANGS    
 PLTORB=       F     MOLPLT=       F     AIMPAC=       F     FRIEND=        
 NPRINT=       7     IREST =       0     GEOM  =INPUT   
 NORMF =       0     NORMP =       0     ITOL  =      20     ICUT  =       9
 INTTYP=BEST         GRDTYP=BEST         QMTTOL= 1.0E-06

     $SYSTEM OPTIONS
     ---------------
  REPLICATED MEMORY=     1000000 WORDS (ON EVERY NODE).
 DISTRIBUTED MEMDDI=           0 MILLION WORDS IN AGGREGATE,
 MEMDDI DISTRIBUTED OVER   1 PROCESSORS IS           0 WORDS/PROCESSOR.
 TOTAL MEMORY REQUESTED ON EACH PROCESSOR=     1000000 WORDS.
 TIMLIM=      525600.00 MINUTES, OR     365.0 DAYS.
 PARALL= F  BALTYP=  DLB     KDIAG=    0  COREFL= F
 MXSEQ2=     300 MXSEQ3=     150  mem10=         0

          ----------------
          PROPERTIES INPUT
          ----------------

     MOMENTS            FIELD           POTENTIAL          DENSITY
 IEMOM =       1   IEFLD =       0   IEPOT =       0   IEDEN =       0
 WHERE =COMASS     WHERE =NUCLEI     WHERE =NUCLEI     WHERE =NUCLEI  
 OUTPUT=BOTH       OUTPUT=BOTH       OUTPUT=BOTH       OUTPUT=BOTH    
 IEMINT=       0   IEFINT=       0                     IEDINT=       0
                                                       MORB  =       0
          EXTRAPOLATION IN EFFECT
 ORBITAL PRINTING OPTION: NPREO=     1     8     2     1

     -------------------------------
     INTEGRAL TRANSFORMATION OPTIONS
     -------------------------------
     NWORD  =            0
     CUTOFF = 1.0E-09     MPTRAN =       0
     DIRTRF =       F     AOINTS =DUP     

          ----------------------
          INTEGRAL INPUT OPTIONS
          ----------------------
 NOPK  =       1 NORDER=       0 SCHWRZ=       F

     ------------------------------------------
     THE POINT GROUP IS C1 , NAXIS= 0, ORDER= 1
     ------------------------------------------

     DIMENSIONS OF THE SYMMETRY SUBSPACES ARE
 A   =    8

 ..... DONE SETTING UP THE RUN .....
 STEP CPU TIME =     0.00 TOTAL CPU TIME =          0.0 (      0.0 MIN)
 TOTAL WALL CLOCK TIME=          0.0 SECONDS, CPU UTILIZATION IS   100.00%

     ---------------------------------
     HESSIAN MATRIX CONTROL PARAMETERS
     ---------------------------------
     METHOD=SEMINUM    NVIB  =       2   VIBSIZ= 0.01000
     RDHESS=       F   PURIFY=       F   PRTIFC=       F
     VIBANL=       T   DECOMP=       F   PROJCT=       F
     SCLFAC= 1.00000   PRTSCN=       F   NPRT  =       0
     PULCOR=       F   NPUN  =       0   REDOVB=       T
     HSSTYP=GENERAL 
     THERMOCHEMISTRY WILL BE PRINTED FOR    1 TEMPERATURES:
      298.15000
1   ATOM  0
                                        -------------------
   COORD  0                             NUCLEAR COORDINATES
                                        -------------------
     VIB  0

                       ATOM             X              Y              Z

                 1  C                0.000000      -0.000000       0.000000
                 2  H               -0.000000      -1.677226      -1.185886
                 3  H               -0.000000       1.677226      -1.185886
                 4  H               -1.677226       0.000000       1.185886
                 5  H                1.677226       0.000000       1.185886

          ********************
          1 ELECTRON INTEGRALS
          ********************

          **************************
          1 AND 2 ELECTRON INTEGRALS
          **************************

 MOPAC ONE- AND TWO-ELECTRON INTEGRALS REQUIRE       118 WORDS.
 ...... END OF ONE- AND TWO-ELECTRON INTEGRALS......
 STEP CPU TIME =     0.00 TOTAL CPU TIME =          0.0 (      0.0 MIN)
 TOTAL WALL CLOCK TIME=          0.0 SECONDS, CPU UTILIZATION IS   100.00%
 ...... END OF ONE-ELECTRON INTEGRALS ......
 STEP CPU TIME =     0.00 TOTAL CPU TIME =          0.0 (      0.0 MIN)
 TOTAL WALL CLOCK TIME=          0.0 SECONDS, CPU UTILIZATION IS   100.00%

          -------------
          GUESS OPTIONS
          -------------
          GUESS =HUCKEL            NORB  =       0          NORDER=       0
          MIX   =       F          PRTMO =       F          PUNMO =       F
          TOLZ  = 1.0E-08          TOLE  = 1.0E-05
          SYMDEN=       F          PURIFY=       F

 INITIAL GUESS ORBITALS GENERATED BY HUCKEL   ROUTINE.

 SYMMETRIES FOR INITIAL GUESS ORBITALS FOLLOW.   BOTH SET(S).
     4 ORBITALS ARE OCCUPIED (    0 CORE ORBITALS).
     1=A        2=A        3=A        4=A        5=A        6=A        7=A   
     8=A   
 ...... END OF INITIAL ORBITAL SELECTION ......
 STEP CPU TIME =     0.00 TOTAL CPU TIME =          0.0 (      0.0 MIN)
 TOTAL WALL CLOCK TIME=          0.0 SECONDS, CPU UTILIZATION IS   100.00%

          --------------------------
               R-PM3 SCF CALCULATION
          --------------------------

     NUCLEAR ENERGY =         7.5102055432
     MAXIT =   60     NPUNCH=    2
     EXTRAP=T  DAMP=F  SHIFT=F  RSTRCT=F  DIIS=F  DEM=F  SOSCF=F
     DENSITY MATRIX CONV=  1.00E-05
     MEMORY REQUIRED FOR RHF ITERS=       686 WORDS.

 ITER EX DEM     TOTAL ENERGY        E CHANGE  DENSITY CHANGE    DIIS ERROR
   1  0  0       -6.5437410859    -6.5437410859   0.278827504   0.000000000
   2  1  0       -6.6249801965    -0.0812391106   0.057050575   0.000000000
   3  2  0       -6.6323354063    -0.0073552098   0.029988029   0.000000000
   4  3  0       -6.6337968145    -0.0014614082   0.016825312   0.000000000
   5  0  0       -6.6342463798    -0.0004495653   0.023455394   0.000000000
   6  1  0       -6.6344799461    -0.0002335663   0.000008526   0.000000000
   7  2  0       -6.6344799462    -0.0000000001   0.000004867   0.000000000
   8  3  0       -6.6344799462    -0.0000000000   0.000002828   0.000000000

          -----------------
          DENSITY CONVERGED
          -----------------
     TIME TO FORM FOCK OPERATORS=       0.0 SECONDS (       0.0 SEC/ITER)
     TIME TO SOLVE SCF EQUATIONS=       0.0 SECONDS (       0.0 SEC/ITER)

 FINAL R-PM3 ENERGY IS       -6.6344799462 AFTER   8 ITERATIONS

 HEAT OF FORMATION IS       -13.01480 KCAL/MOL


          ------------
          EIGENVECTORS
          ------------

                      1          2          3          4          5
                   -1.0980    -0.5014    -0.5014    -0.5013     0.1560
                     A          A          A          A          A   
    1  C  1  S    0.745267   0.000000  -0.000000   0.000000   0.666766
    2  C  1  X   -0.000000   0.004864   0.707042  -0.000000  -0.000000
    3  C  1  Y    0.000000   0.707042  -0.004864  -0.000000  -0.000000
    4  C  1  Z   -0.000000   0.000000   0.000000   0.707066  -0.000000
    5  H  2  S    0.333383  -0.500022   0.003440  -0.353574  -0.372633
    6  H  3  S    0.333383   0.500022  -0.003440  -0.353574  -0.372633
    7  H  4  S    0.333383  -0.003440  -0.500022   0.353574  -0.372633
    8  H  5  S    0.333383   0.003440   0.500022   0.353574  -0.372633

                      6          7          8
                    0.1688     0.1688     0.1688
                     A          A          A   
    1  C  1  S    0.000000   0.000000   0.000000
    2  C  1  X    0.000000   0.291647   0.644212
    3  C  1  Y    0.000000   0.644212  -0.291647
    4  C  1  Z    0.707147  -0.000000  -0.000000
    5  H  2  S    0.353533   0.455465  -0.206198
    6  H  3  S    0.353533  -0.455465   0.206198
    7  H  4  S   -0.353533   0.206198   0.455465
    8  H  5  S   -0.353533  -0.206198  -0.455465
 ...... END OF RHF CALCULATION ......
 STEP CPU TIME =     0.00 TOTAL CPU TIME =          0.0 (      0.0 MIN)
 TOTAL WALL CLOCK TIME=          0.0 SECONDS, CPU UTILIZATION IS   100.00%

     ----------------------------------------------------------------
     PROPERTY VALUES FOR THE RHF   SELF-CONSISTENT FIELD WAVEFUNCTION
     ----------------------------------------------------------------

                    -------------
                    MOPAC CHARGES
                    -------------
         ATOM NO.   TYPE          CHARGE        ATOM  ELECTRON DENSITY
           1         C             -0.1105          4.1105
           2         H              0.0276          0.9724
           3         H              0.0276          0.9724
           4         H              0.0276          0.9724
           5         H              0.0276          0.9724

          ---------------------
          ELECTROSTATIC MOMENTS
          ---------------------

 POINT   1           X           Y           Z (ANGS)      CHARGE
                 0.000000    0.000000    0.000000        0.00 (A.U.)
         DX          DY          DZ         /D/  (DEBYE)
    -0.000000   -0.000000    0.000000    0.000000
 ...... END OF PROPERTY EVALUATION ......
 STEP CPU TIME =     0.00 TOTAL CPU TIME =          0.0 (      0.0 MIN)
 TOTAL WALL CLOCK TIME=          0.0 SECONDS, CPU UTILIZATION IS   100.00%
 THE VIB 0 GRADIENT RMS = 3.82191965E-06

 THE VIB 0 GEOMETRY GRADIENT IS

 UNITS ARE HARTREE/BOHR    E'X               E'Y               E'Z 
    1 C                0.000000000       0.000000000       0.000000000
    2 H                0.000000000       0.000000030       0.000007401
    3 H                0.000000000      -0.000000030       0.000007401
    4 H                0.000000030       0.000000000      -0.000007401
    5 H               -0.000000030       0.000000000      -0.000007401
  $VIB   
          IVIB=   0 IATOM=   0 ICOORD=   0 E=       -6.6344799462
  0.000000000E+00 0.000000000E+00 0.000000000E+00 0.000000000E+00 3.044994718E-08
  7.401051994E-06 0.000000000E+00-3.044735629E-08 7.401054584E-06 3.044873810E-08
  0.000000000E+00-7.401053203E-06-3.044752901E-08 0.000000000E+00-7.401051994E-06
 -1.456971702E-15-4.528419720E-16 4.748667747E-15
1   ATOM  1
                                        -------------------
   COORD  1                             NUCLEAR COORDINATES
                                        -------------------
     VIB  1

                       ATOM             X              Y              Z

                 1  C                0.010000      -0.000000       0.000000
                 2  H               -0.000000      -1.677226      -1.185886
                 3  H               -0.000000       1.677226      -1.185886
                 4  H               -1.677226       0.000000       1.185886
                 5  H                1.677226       0.000000       1.185886

 MOPAC ONE- AND TWO-ELECTRON INTEGRALS REQUIRE       118 WORDS.
 ...... END OF ONE- AND TWO-ELECTRON INTEGRALS......
 STEP CPU TIME =     0.00 TOTAL CPU TIME =          0.0 (      0.0 MIN)
 TOTAL WALL CLOCK TIME=          0.0 SECONDS, CPU UTILIZATION IS   100.00%
 ...... END OF ONE-ELECTRON INTEGRALS ......
 STEP CPU TIME =     0.00 TOTAL CPU TIME =          0.0 (      0.0 MIN)
 TOTAL WALL CLOCK TIME=          0.0 SECONDS, CPU UTILIZATION IS   100.00%

          --------------------------
               R-PM3 SCF CALCULATION
          --------------------------
     DENSITY MATRIX CONV=  1.00E-05

 ITER EX DEM     TOTAL ENERGY        E CHANGE  DENSITY CHANGE    DIIS ERROR
   1  0  0       -6.6344472919    -6.6344472919   0.001457018   0.000000000
   2  1  0       -6.6344524566    -0.0000051647   0.000498654   0.000000000
   3  2  0       -6.6344531086    -0.0000006520   0.000187446   0.000000000
   4  3  0       -6.6344532181    -0.0000001095   0.000092546   0.000000000
   5  4  0       -6.6344532397    -0.0000000216   0.000045730   0.000000000
   6  5  0       -6.6344532443    -0.0000000046   0.000022163   0.000000000
   7  6  0       -6.6344532453    -0.0000000010   0.000011110   0.000000000
   8  7  0       -6.6344532455    -0.0000000002   0.000005499   0.000000000
   9  8  0       -6.6344532456    -0.0000000001   0.000002696   0.000000000

          -----------------
          DENSITY CONVERGED
          -----------------
     TIME TO FORM FOCK OPERATORS=       0.0 SECONDS (       0.0 SEC/ITER)
     TIME TO SOLVE SCF EQUATIONS=       0.0 SECONDS (       0.0 SEC/ITER)

 FINAL R-PM3 ENERGY IS       -6.6344532456 AFTER   9 ITERATIONS

 HEAT OF FORMATION IS       -12.99804 KCAL/MOL

 ...... END OF RHF CALCULATION ......
 STEP CPU TIME =     0.00 TOTAL CPU TIME =          0.0 (      0.0 MIN)
 TOTAL WALL CLOCK TIME=          0.0 SECONDS, CPU UTILIZATION IS   100.00%
 STEP CPU TIME =     0.00 TOTAL CPU TIME =          0.0 (      0.0 MIN)
 TOTAL WALL CLOCK TIME=          0.0 SECONDS, CPU UTILIZATION IS   100.00%

 UNITS ARE HARTREE/BOHR    E'X               E'Y               E'Z 
    1 C                0.005340847       0.000000000       0.000052805
    2 H               -0.000406795      -0.000004689       0.000003150
    3 H               -0.000406795       0.000004689       0.000003150
    4 H               -0.002242145       0.000000000       0.001283483
    5 H               -0.002285112       0.000000000      -0.001342588
  $VIB   
          IVIB=   1 IATOM=   1 ICOORD=   1 E=       -6.6344532456
  5.340846918E-03 0.000000000E+00 5.280495286E-05-4.067950690E-04-4.688593188E-06
  3.149877505E-06-4.067950703E-04 4.688594915E-06 3.149877160E-06-2.242145126E-03
  0.000000000E+00 1.283482846E-03-2.285111652E-03 0.000000000E+00-1.342587553E-03
 -6.697139467E-03 1.438647450E-15 3.440699058E-05
1   ATOM  1
                                        -------------------
   COORD  2                             NUCLEAR COORDINATES
                                        -------------------
     VIB  1

                       ATOM             X              Y              Z

                 1  C                0.000000       0.010000       0.000000
                 2  H               -0.000000      -1.677226      -1.185886
                 3  H               -0.000000       1.677226      -1.185886
                 4  H               -1.677226       0.000000       1.185886
                 5  H                1.677226       0.000000       1.185886

 MOPAC ONE- AND TWO-ELECTRON INTEGRALS REQUIRE       118 WORDS.
 ...... END OF ONE- AND TWO-ELECTRON INTEGRALS......
 STEP CPU TIME =     0.00 TOTAL CPU TIME =          0.0 (      0.0 MIN)
 TOTAL WALL CLOCK TIME=          0.0 SECONDS, CPU UTILIZATION IS   100.00%
 ...... END OF ONE-ELECTRON INTEGRALS ......
 STEP CPU TIME =     0.00 TOTAL CPU TIME =          0.0 (      0.0 MIN)
 TOTAL WALL CLOCK TIME=          0.0 SECONDS, CPU UTILIZATION IS   100.00%

          --------------------------
               R-PM3 SCF CALCULATION
          --------------------------
     DENSITY MATRIX CONV=  1.00E-05

 ITER EX DEM     TOTAL ENERGY        E CHANGE  DENSITY CHANGE    DIIS ERROR
   1  0  0       -6.6344472919    -6.6344472919   0.001457018   0.000000000
   2  1  0       -6.6344524566    -0.0000051647   0.000498654   0.000000000
   3  2  0       -6.6344531086    -0.0000006520   0.000187446   0.000000000
   4  3  0       -6.6344532181    -0.0000001095   0.000092546   0.000000000
   5  4  0       -6.6344532397    -0.0000000216   0.000045730   0.000000000
   6  5  0       -6.6344532443    -0.0000000046   0.000022163   0.000000000
   7  6  0       -6.6344532453    -0.0000000010   0.000011110   0.000000000
   8  7  0       -6.6344532455    -0.0000000002   0.000005499   0.000000000
   9  8  0       -6.6344532456    -0.0000000001   0.000002696   0.000000000

          -----------------
          DENSITY CONVERGED
          -----------------
     TIME TO FORM FOCK OPERATORS=       0.0 SECONDS (       0.0 SEC/ITER)
     TIME TO SOLVE SCF EQUATIONS=       0.0 SECONDS (       0.0 SEC/ITER)

 FINAL R-PM3 ENERGY IS       -6.6344532456 AFTER   9 ITERATIONS

 HEAT OF FORMATION IS       -12.99804 KCAL/MOL

 ...... END OF RHF CALCULATION ......
 STEP CPU TIME =     0.00 TOTAL CPU TIME =          0.0 (      0.0 MIN)
 TOTAL WALL CLOCK TIME=          0.0 SECONDS, CPU UTILIZATION IS   100.00%
 STEP CPU TIME =     0.00 TOTAL CPU TIME =          0.0 (      0.0 MIN)
 TOTAL WALL CLOCK TIME=          0.0 SECONDS, CPU UTILIZATION IS     0.00%

 UNITS ARE HARTREE/BOHR    E'X               E'Y               E'Z 
    1 C                0.000000000       0.005340847      -0.000052805
    2 H                0.000000000      -0.002242145      -0.001283483
    3 H                0.000000000      -0.002285112       0.001342588
    4 H               -0.000004689      -0.000406795      -0.000003150
    5 H                0.000004689      -0.000406795      -0.000003150
  $VIB   
          IVIB=   1 IATOM=   1 ICOORD=   2 E=       -6.6344532456
  0.000000000E+00 5.340846917E-03-5.280494872E-05 0.000000000E+00-2.242145128E-03
 -1.283482847E-03 0.000000000E+00-2.285111648E-03 1.342587550E-03-4.688593360E-06
 -4.067950688E-04-3.149877332E-06 4.688593533E-06-4.067950717E-04-3.149877160E-06
 -4.425354855E-15-6.697139467E-03-3.440699057E-05
1   ATOM  1
                                        -------------------
   COORD  3                             NUCLEAR COORDINATES
                                        -------------------
     VIB  1

                       ATOM             X              Y              Z

                 1  C                0.000000       0.000000       0.010000
                 2  H               -0.000000      -1.677226      -1.185886
                 3  H               -0.000000       1.677226      -1.185886
                 4  H               -1.677226       0.000000       1.185886
                 5  H                1.677226       0.000000       1.185886

 MOPAC ONE- AND TWO-ELECTRON INTEGRALS REQUIRE       118 WORDS.
 ...... END OF ONE- AND TWO-ELECTRON INTEGRALS......
 STEP CPU TIME =     0.00 TOTAL CPU TIME =          0.0 (      0.0 MIN)
 TOTAL WALL CLOCK TIME=          0.0 SECONDS, CPU UTILIZATION IS     0.00%
 ...... END OF ONE-ELECTRON INTEGRALS ......
 STEP CPU TIME =     0.00 TOTAL CPU TIME =          0.0 (      0.0 MIN)
 TOTAL WALL CLOCK TIME=          0.0 SECONDS, CPU UTILIZATION IS     0.00%

          --------------------------
               R-PM3 SCF CALCULATION
          --------------------------
     DENSITY MATRIX CONV=  1.00E-05

 ITER EX DEM     TOTAL ENERGY        E CHANGE  DENSITY CHANGE    DIIS ERROR
   1  0  0       -6.6344472947    -6.6344472947   0.001050545   0.000000000
   2  1  0       -6.6344524596    -0.0000051649   0.000370857   0.000000000
   3  2  0       -6.6344531117    -0.0000006521   0.000178183   0.000000000
   4  3  0       -6.6344532212    -0.0000001095   0.000092562   0.000000000
   5  4  0       -6.6344532428    -0.0000000216   0.000045739   0.000000000
   6  5  0       -6.6344532474    -0.0000000046   0.000022167   0.000000000
   7  6  0       -6.6344532484    -0.0000000010   0.000010664   0.000000000
   8  7  0       -6.6344532487    -0.0000000002   0.000005118   0.000000000
   9  8  0       -6.6344532487    -0.0000000001   0.000002455   0.000000000

          -----------------
          DENSITY CONVERGED
          -----------------
     TIME TO FORM FOCK OPERATORS=       0.0 SECONDS (       0.0 SEC/ITER)
     TIME TO SOLVE SCF EQUATIONS=       0.0 SECONDS (       0.0 SEC/ITER)

 FINAL R-PM3 ENERGY IS       -6.6344532487 AFTER   9 ITERATIONS

 HEAT OF FORMATION IS       -12.99804 KCAL/MOL

 ...... END OF RHF CALCULATION ......
 STEP CPU TIME =     0.00 TOTAL CPU TIME =          0.0 (      0.0 MIN)
 TOTAL WALL CLOCK TIME=          0.0 SECONDS, CPU UTILIZATION IS     0.00%
 STEP CPU TIME =     0.01 TOTAL CPU TIME =          0.0 (      0.0 MIN)
 TOTAL WALL CLOCK TIME=          0.0 SECONDS, CPU UTILIZATION IS   100.00%

 UNITS ARE HARTREE/BOHR    E'X               E'Y               E'Z 
    1 C                0.000000000       0.000000000       0.005340033
    2 H                0.000000000      -0.001300206      -0.001324728
    3 H                0.000000000       0.001300206      -0.001324728
    4 H                0.001325578       0.000000000      -0.001345288
    5 H               -0.001325578       0.000000000      -0.001345288
  $VIB   
          IVIB=   1 IATOM=   1 ICOORD=   3 E=       -6.6344532487
  0.000000000E+00 0.000000000E+00 5.340032897E-03 0.000000000E+00-1.300205992E-03
 -1.324728130E-03 0.000000000E+00 1.300205991E-03-1.324728128E-03 1.325578337E-03
  0.000000000E+00-1.345288322E-03-1.325578336E-03 0.000000000E+00-1.345288317E-03
 -1.111082955E-15-4.778312652E-16-6.697943131E-03
1   ATOM  2
                                        -------------------
   COORD  1                             NUCLEAR COORDINATES
                                        -------------------
     VIB  1

                       ATOM             X              Y              Z

                 1  C                0.000000       0.000000       0.000000
                 2  H                0.010000      -1.677226      -1.185886
                 3  H               -0.000000       1.677226      -1.185886
                 4  H               -1.677226       0.000000       1.185886
                 5  H                1.677226       0.000000       1.185886

 MOPAC ONE- AND TWO-ELECTRON INTEGRALS REQUIRE       118 WORDS.
 ...... END OF ONE- AND TWO-ELECTRON INTEGRALS......
 STEP CPU TIME =     0.00 TOTAL CPU TIME =          0.0 (      0.0 MIN)
 TOTAL WALL CLOCK TIME=          0.0 SECONDS, CPU UTILIZATION IS   100.00%
 ...... END OF ONE-ELECTRON INTEGRALS ......
 STEP CPU TIME =     0.00 TOTAL CPU TIME =          0.0 (      0.0 MIN)
 TOTAL WALL CLOCK TIME=          0.0 SECONDS, CPU UTILIZATION IS   100.00%

          --------------------------
               R-PM3 SCF CALCULATION
          --------------------------
     DENSITY MATRIX CONV=  1.00E-05

 ITER EX DEM     TOTAL ENERGY        E CHANGE  DENSITY CHANGE    DIIS ERROR
   1  0  0       -6.6344761458    -6.6344761458   0.001087969   0.000000000
   2  1  0       -6.6344774688    -0.0000013229   0.000494676   0.000000000
   3  2  0       -6.6344777399    -0.0000002711   0.000228027   0.000000000
   4  3  0       -6.6344777978    -0.0000000579   0.000106018   0.000000000
   5  4  0       -6.6344778104    -0.0000000126   0.000049565   0.000000000
   6  5  0       -6.6344778132    -0.0000000028   0.000023258   0.000000000
   7  6  0       -6.6344778138    -0.0000000006   0.000010940   0.000000000
   8  7  0       -6.6344778139    -0.0000000001   0.000005155   0.000000000

          -----------------
          DENSITY CONVERGED
          -----------------
     TIME TO FORM FOCK OPERATORS=       0.0 SECONDS (       0.0 SEC/ITER)
     TIME TO SOLVE SCF EQUATIONS=       0.0 SECONDS (       0.0 SEC/ITER)

 FINAL R-PM3 ENERGY IS       -6.6344778139 AFTER   8 ITERATIONS

 HEAT OF FORMATION IS       -13.01346 KCAL/MOL

 ...... END OF RHF CALCULATION ......
 STEP CPU TIME =     0.00 TOTAL CPU TIME =          0.0 (      0.0 MIN)
 TOTAL WALL CLOCK TIME=          0.0 SECONDS, CPU UTILIZATION IS   100.00%
 STEP CPU TIME =     0.00 TOTAL CPU TIME =          0.0 (      0.0 MIN)
 TOTAL WALL CLOCK TIME=          0.0 SECONDS, CPU UTILIZATION IS   100.00%

 UNITS ARE HARTREE/BOHR    E'X               E'Y               E'Z 
    1 C               -0.000407011       0.000004869       0.000003933
    2 H                0.000427199      -0.000004436       0.000005022
    3 H                0.000024789       0.000000305       0.000007420
    4 H               -0.000022251       0.000200050       0.000166971
    5 H               -0.000022727      -0.000200788      -0.000183347
  $VIB   
          IVIB=   1 IATOM=   2 ICOORD=   1 E=       -6.6344778139
 -4.070105475E-04 4.869033090E-06 3.933032563E-06 4.271990359E-04-4.436424478E-06
  5.022004132E-06 2.478919577E-05 3.052136957E-07 7.420415148E-06-2.225071051E-05
  2.000502110E-04 1.669712216E-04-2.272697366E-05-2.007880333E-04-1.833466734E-04
  2.994573699E-03 7.272300304E-06 6.638023181E-06
1   ATOM  2
                                        -------------------
   COORD  2                             NUCLEAR COORDINATES
                                        -------------------
     VIB  1

                       ATOM             X              Y              Z

                 1  C                0.000000       0.000000       0.000000
                 2  H                0.000000      -1.667226      -1.185886
                 3  H               -0.000000       1.677226      -1.185886
                 4  H               -1.677226       0.000000       1.185886
                 5  H                1.677226       0.000000       1.185886

 MOPAC ONE- AND TWO-ELECTRON INTEGRALS REQUIRE       118 WORDS.
 ...... END OF ONE- AND TWO-ELECTRON INTEGRALS......
 STEP CPU TIME =     0.00 TOTAL CPU TIME =          0.0 (      0.0 MIN)
 TOTAL WALL CLOCK TIME=          0.0 SECONDS, CPU UTILIZATION IS   100.00%
 ...... END OF ONE-ELECTRON INTEGRALS ......
 STEP CPU TIME =     0.00 TOTAL CPU TIME =          0.0 (      0.0 MIN)
 TOTAL WALL CLOCK TIME=          0.0 SECONDS, CPU UTILIZATION IS   100.00%

          --------------------------
               R-PM3 SCF CALCULATION
          --------------------------
     DENSITY MATRIX CONV=  1.00E-05

 ITER EX DEM     TOTAL ENERGY        E CHANGE  DENSITY CHANGE    DIIS ERROR
   1  0  0       -6.6344655284    -6.6344655284   0.000552160   0.000000000
   2  1  0       -6.6344665592    -0.0000010309   0.000216572   0.000000000
   3  2  0       -6.6344666830    -0.0000001237   0.000097269   0.000000000
   4  3  0       -6.6344667046    -0.0000000216   0.000046649   0.000000000
   5  4  0       -6.6344667090    -0.0000000044   0.000022163   0.000000000
   6  5  0       -6.6344667100    -0.0000000010   0.000010489   0.000000000
   7  6  0       -6.6344667102    -0.0000000002   0.000004958   0.000000000

          -----------------
          DENSITY CONVERGED
          -----------------
     TIME TO FORM FOCK OPERATORS=       0.0 SECONDS (       0.0 SEC/ITER)
     TIME TO SOLVE SCF EQUATIONS=       0.0 SECONDS (       0.0 SEC/ITER)

 FINAL R-PM3 ENERGY IS       -6.6344667102 AFTER   7 ITERATIONS

 HEAT OF FORMATION IS       -13.00649 KCAL/MOL

 ...... END OF RHF CALCULATION ......
 STEP CPU TIME =     0.00 TOTAL CPU TIME =          0.0 (      0.0 MIN)
 TOTAL WALL CLOCK TIME=          0.0 SECONDS, CPU UTILIZATION IS   100.00%
 STEP CPU TIME =     0.00 TOTAL CPU TIME =          0.0 (      0.0 MIN)
 TOTAL WALL CLOCK TIME=          0.0 SECONDS, CPU UTILIZATION IS   100.00%

 UNITS ARE HARTREE/BOHR    E'X               E'Y               E'Z 
    1 C                0.000000000      -0.002284821      -0.001334948
    2 H                0.000000000       0.002656243       0.001588665
    3 H                0.000000000      -0.000326332      -0.000097728
    4 H                0.000052232      -0.000022545      -0.000077995
    5 H               -0.000052232      -0.000022545      -0.000077995
  $VIB   
          IVIB=   1 IATOM=   2 ICOORD=   2 E=       -6.6344667102
  0.000000000E+00-2.284821421E-03-1.334948023E-03 0.000000000E+00 2.656242810E-03
  1.588665127E-03 0.000000000E+00-3.263321137E-04-9.772789778E-05 5.223212647E-05
 -2.254463809E-05-7.799460388E-05-5.223212802E-05-2.254463671E-05-7.799460249E-05
 -4.499492055E-15 3.491029140E-04-1.875966819E-03
1   ATOM  2
                                        -------------------
   COORD  3                             NUCLEAR COORDINATES
                                        -------------------
     VIB  1

                       ATOM             X              Y              Z

                 1  C                0.000000       0.000000       0.000000
                 2  H                0.000000      -1.677226      -1.175886
                 3  H               -0.000000       1.677226      -1.185886
                 4  H               -1.677226       0.000000       1.185886
                 5  H                1.677226       0.000000       1.185886

 MOPAC ONE- AND TWO-ELECTRON INTEGRALS REQUIRE       118 WORDS.
 ...... END OF ONE- AND TWO-ELECTRON INTEGRALS......
 STEP CPU TIME =     0.00 TOTAL CPU TIME =          0.0 (      0.0 MIN)
 TOTAL WALL CLOCK TIME=          0.0 SECONDS, CPU UTILIZATION IS   100.00%
 ...... END OF ONE-ELECTRON INTEGRALS ......
 STEP CPU TIME =     0.00 TOTAL CPU TIME =          0.0 (      0.0 MIN)
 TOTAL WALL CLOCK TIME=          0.0 SECONDS, CPU UTILIZATION IS   100.00%

          --------------------------
               R-PM3 SCF CALCULATION
          --------------------------
     DENSITY MATRIX CONV=  1.00E-05

 ITER EX DEM     TOTAL ENERGY        E CHANGE  DENSITY CHANGE    DIIS ERROR
   1  0  0       -6.6344707876    -6.6344707876   0.000821779   0.000000000
   2  1  0       -6.6344719680    -0.0000011804   0.000356506   0.000000000
   3  2  0       -6.6344721663    -0.0000001983   0.000160193   0.000000000
   4  3  0       -6.6344722062    -0.0000000399   0.000073464   0.000000000
   5  4  0       -6.6344722147    -0.0000000086   0.000034090   0.000000000
   6  5  0       -6.6344722166    -0.0000000019   0.000015930   0.000000000
   7  6  0       -6.6344722171    -0.0000000004   0.000007476   0.000000000
   8  7  0       -6.6344722171    -0.0000000001   0.000003518   0.000000000

          -----------------
          DENSITY CONVERGED
          -----------------
     TIME TO FORM FOCK OPERATORS=       0.0 SECONDS (       0.0 SEC/ITER)
     TIME TO SOLVE SCF EQUATIONS=       0.0 SECONDS (       0.0 SEC/ITER)

 FINAL R-PM3 ENERGY IS       -6.6344722171 AFTER   8 ITERATIONS

 HEAT OF FORMATION IS       -13.00995 KCAL/MOL

 ...... END OF RHF CALCULATION ......
 STEP CPU TIME =     0.00 TOTAL CPU TIME =          0.0 (      0.0 MIN)
 TOTAL WALL CLOCK TIME=          0.0 SECONDS, CPU UTILIZATION IS   100.00%
 STEP CPU TIME =     0.00 TOTAL CPU TIME =          0.0 (      0.0 MIN)
 TOTAL WALL CLOCK TIME=          0.0 SECONDS, CPU UTILIZATION IS   100.00%

 UNITS ARE HARTREE/BOHR    E'X               E'Y               E'Z 
    1 C                0.000000000      -0.001325698      -0.001337355
    2 H                0.000000000       0.001572960       0.001540309
    3 H                0.000000000       0.000105892       0.000111404
    4 H                0.000071276      -0.000176577      -0.000157179
    5 H               -0.000071276      -0.000176577      -0.000157179
  $VIB   
          IVIB=   1 IATOM=   2 ICOORD=   3 E=       -6.6344722171
  0.000000000E+00-1.325697869E-03-1.337355005E-03 0.000000000E+00 1.572959961E-03
  1.540309326E-03 0.000000000E+00 1.058916637E-04 1.114043310E-04 7.127645616E-05
 -1.765768777E-04-1.571793262E-04-7.127645737E-05-1.765768779E-04-1.571793264E-04
 -2.945433889E-15-1.871625273E-03 1.680399170E-03
1   ATOM  3
                                        -------------------
   COORD  1                             NUCLEAR COORDINATES
                                        -------------------
     VIB  1

                       ATOM             X              Y              Z

                 1  C                0.000000       0.000000       0.000000
                 2  H                0.000000      -1.677226      -1.185886
                 3  H                0.010000       1.677226      -1.185886
                 4  H               -1.677226       0.000000       1.185886
                 5  H                1.677226       0.000000       1.185886

 MOPAC ONE- AND TWO-ELECTRON INTEGRALS REQUIRE       118 WORDS.
 ...... END OF ONE- AND TWO-ELECTRON INTEGRALS......
 STEP CPU TIME =     0.00 TOTAL CPU TIME =          0.0 (      0.0 MIN)
 TOTAL WALL CLOCK TIME=          0.0 SECONDS, CPU UTILIZATION IS   100.00%
 ...... END OF ONE-ELECTRON INTEGRALS ......
 STEP CPU TIME =     0.00 TOTAL CPU TIME =          0.0 (      0.0 MIN)
 TOTAL WALL CLOCK TIME=          0.0 SECONDS, CPU UTILIZATION IS   100.00%

          --------------------------
               R-PM3 SCF CALCULATION
          --------------------------
     DENSITY MATRIX CONV=  1.00E-05

 ITER EX DEM     TOTAL ENERGY        E CHANGE  DENSITY CHANGE    DIIS ERROR
   1  0  0       -6.6344761458    -6.6344761458   0.001087969   0.000000000
   2  1  0       -6.6344774688    -0.0000013229   0.000494676   0.000000000
   3  2  0       -6.6344777399    -0.0000002711   0.000228027   0.000000000
   4  3  0       -6.6344777978    -0.0000000579   0.000106018   0.000000000
   5  4  0       -6.6344778104    -0.0000000126   0.000049565   0.000000000
   6  5  0       -6.6344778132    -0.0000000028   0.000023258   0.000000000
   7  6  0       -6.6344778138    -0.0000000006   0.000010940   0.000000000
   8  7  0       -6.6344778139    -0.0000000001   0.000005155   0.000000000

          -----------------
          DENSITY CONVERGED
          -----------------
     TIME TO FORM FOCK OPERATORS=       0.0 SECONDS (       0.0 SEC/ITER)
     TIME TO SOLVE SCF EQUATIONS=       0.0 SECONDS (       0.0 SEC/ITER)

 FINAL R-PM3 ENERGY IS       -6.6344778139 AFTER   8 ITERATIONS

 HEAT OF FORMATION IS       -13.01346 KCAL/MOL

 ...... END OF RHF CALCULATION ......
 STEP CPU TIME =     0.00 TOTAL CPU TIME =          0.0 (      0.0 MIN)
 TOTAL WALL CLOCK TIME=          0.0 SECONDS, CPU UTILIZATION IS   100.00%
 STEP CPU TIME =     0.00 TOTAL CPU TIME =          0.0 (      0.0 MIN)
 TOTAL WALL CLOCK TIME=          0.0 SECONDS, CPU UTILIZATION IS    50.00%

 UNITS ARE HARTREE/BOHR    E'X               E'Y               E'Z 
    1 C               -0.000407011      -0.000004869       0.000003933
    2 H                0.000024789      -0.000000305       0.000007420
    3 H                0.000427199       0.000004436       0.000005022
    4 H               -0.000022251      -0.000200050       0.000166971
    5 H               -0.000022727       0.000200788      -0.000183347
  $VIB   
          IVIB=   1 IATOM=   3 ICOORD=   1 E=       -6.6344778139
 -4.070105502E-04-4.869041381E-06 3.933032563E-06 2.478919543E-05-3.052133503E-07
  7.420413939E-06 4.271990376E-04 4.436426551E-06 5.022003787E-06-2.225070913E-05
 -2.000502069E-04 1.669712217E-04-2.272697366E-05 2.007880351E-04-1.833466720E-04
  2.994573699E-03-7.272300301E-06 6.638023185E-06
1   ATOM  3
                                        -------------------
   COORD  2                             NUCLEAR COORDINATES
                                        -------------------
     VIB  1

                       ATOM             X              Y              Z

                 1  C                0.000000       0.000000       0.000000
                 2  H                0.000000      -1.677226      -1.185886
                 3  H                0.000000       1.687226      -1.185886
                 4  H               -1.677226       0.000000       1.185886
                 5  H                1.677226       0.000000       1.185886

 MOPAC ONE- AND TWO-ELECTRON INTEGRALS REQUIRE       118 WORDS.
 ...... END OF ONE- AND TWO-ELECTRON INTEGRALS......
 STEP CPU TIME =     0.00 TOTAL CPU TIME =          0.0 (      0.0 MIN)
 TOTAL WALL CLOCK TIME=          0.0 SECONDS, CPU UTILIZATION IS    50.00%
 ...... END OF ONE-ELECTRON INTEGRALS ......
 STEP CPU TIME =     0.00 TOTAL CPU TIME =          0.0 (      0.0 MIN)
 TOTAL WALL CLOCK TIME=          0.0 SECONDS, CPU UTILIZATION IS    50.00%

          --------------------------
               R-PM3 SCF CALCULATION
          --------------------------
     DENSITY MATRIX CONV=  1.00E-05

 ITER EX DEM     TOTAL ENERGY        E CHANGE  DENSITY CHANGE    DIIS ERROR
   1  0  0       -6.6344657128    -6.6344657128   0.000548446   0.000000000
   2  1  0       -6.6344667322    -0.0000010194   0.000214962   0.000000000
   3  2  0       -6.6344668538    -0.0000001216   0.000096427   0.000000000
   4  3  0       -6.6344668750    -0.0000000212   0.000046271   0.000000000
   5  4  0       -6.6344668793    -0.0000000044   0.000021993   0.000000000
   6  5  0       -6.6344668803    -0.0000000009   0.000010413   0.000000000
   7  6  0       -6.6344668805    -0.0000000002   0.000004923   0.000000000

          -----------------
          DENSITY CONVERGED
          -----------------
     TIME TO FORM FOCK OPERATORS=       0.0 SECONDS (       0.0 SEC/ITER)
     TIME TO SOLVE SCF EQUATIONS=       0.0 SECONDS (       0.0 SEC/ITER)

 FINAL R-PM3 ENERGY IS       -6.6344668805 AFTER   7 ITERATIONS

 HEAT OF FORMATION IS       -13.00660 KCAL/MOL

 ...... END OF RHF CALCULATION ......
 STEP CPU TIME =     0.00 TOTAL CPU TIME =          0.0 (      0.0 MIN)
 TOTAL WALL CLOCK TIME=          0.0 SECONDS, CPU UTILIZATION IS    50.00%
 STEP CPU TIME =     0.00 TOTAL CPU TIME =          0.0 (      0.0 MIN)
 TOTAL WALL CLOCK TIME=          0.0 SECONDS, CPU UTILIZATION IS    50.00%

 UNITS ARE HARTREE/BOHR    E'X               E'Y               E'Z 
    1 C                0.000000000      -0.002243117       0.001290644
    2 H                0.000000000      -0.000316732       0.000112042
    3 H                0.000000000       0.002605278      -0.001526791
    4 H               -0.000051119      -0.000022714       0.000062052
    5 H                0.000051119      -0.000022714       0.000062052
  $VIB   
          IVIB=   1 IATOM=   3 ICOORD=   2 E=       -6.6344668805
  0.000000000E+00-2.243117419E-03 1.290644469E-03 0.000000000E+00-3.167318910E-04
  1.120422428E-04 0.000000000E+00 2.605277625E-03-1.526791481E-03-5.111904540E-05
 -2.271415650E-05 6.205238488E-05 5.111904384E-05-2.271415788E-05 6.205238505E-05
 -1.253907974E-15 3.413718835E-04 1.860213115E-03
1   ATOM  3
                                        -------------------
   COORD  3                             NUCLEAR COORDINATES
                                        -------------------
     VIB  1

                       ATOM             X              Y              Z

                 1  C                0.000000       0.000000       0.000000
                 2  H                0.000000      -1.677226      -1.185886
                 3  H                0.000000       1.677226      -1.175886
                 4  H               -1.677226       0.000000       1.185886
                 5  H                1.677226       0.000000       1.185886

 MOPAC ONE- AND TWO-ELECTRON INTEGRALS REQUIRE       118 WORDS.
 ...... END OF ONE- AND TWO-ELECTRON INTEGRALS......
 STEP CPU TIME =     0.00 TOTAL CPU TIME =          0.0 (      0.0 MIN)
 TOTAL WALL CLOCK TIME=          0.0 SECONDS, CPU UTILIZATION IS    50.00%
 ...... END OF ONE-ELECTRON INTEGRALS ......
 STEP CPU TIME =     0.00 TOTAL CPU TIME =          0.0 (      0.0 MIN)
 TOTAL WALL CLOCK TIME=          0.0 SECONDS, CPU UTILIZATION IS    50.00%

          --------------------------
               R-PM3 SCF CALCULATION
          --------------------------
     DENSITY MATRIX CONV=  1.00E-05

 ITER EX DEM     TOTAL ENERGY        E CHANGE  DENSITY CHANGE    DIIS ERROR
   1  0  0       -6.6344707876    -6.6344707876   0.000821779   0.000000000
   2  1  0       -6.6344719680    -0.0000011804   0.000356506   0.000000000
   3  2  0       -6.6344721663    -0.0000001983   0.000160193   0.000000000
   4  3  0       -6.6344722062    -0.0000000399   0.000073464   0.000000000
   5  4  0       -6.6344722147    -0.0000000086   0.000034090   0.000000000
   6  5  0       -6.6344722166    -0.0000000019   0.000015930   0.000000000
   7  6  0       -6.6344722171    -0.0000000004   0.000007476   0.000000000
   8  7  0       -6.6344722171    -0.0000000001   0.000003518   0.000000000

          -----------------
          DENSITY CONVERGED
          -----------------
     TIME TO FORM FOCK OPERATORS=       0.0 SECONDS (       0.0 SEC/ITER)
     TIME TO SOLVE SCF EQUATIONS=       0.0 SECONDS (       0.0 SEC/ITER)

 FINAL R-PM3 ENERGY IS       -6.6344722171 AFTER   8 ITERATIONS

 HEAT OF FORMATION IS       -13.00995 KCAL/MOL

 ...... END OF RHF CALCULATION ......
 STEP CPU TIME =     0.01 TOTAL CPU TIME =          0.0 (      0.0 MIN)
 TOTAL WALL CLOCK TIME=          0.0 SECONDS, CPU UTILIZATION IS   100.00%
 STEP CPU TIME =     0.00 TOTAL CPU TIME =          0.0 (      0.0 MIN)
 TOTAL WALL CLOCK TIME=          0.0 SECONDS, CPU UTILIZATION IS   100.00%

 UNITS ARE HARTREE/BOHR    E'X               E'Y               E'Z 
    1 C                0.000000000       0.001325698      -0.001337355
    2 H                0.000000000      -0.000105892       0.000111404
    3 H                0.000000000      -0.001572960       0.001540309
    4 H                0.000071276       0.000176577      -0.000157179
    5 H               -0.000071276       0.000176577      -0.000157179
  $VIB   
          IVIB=   1 IATOM=   3 ICOORD=   3 E=       -6.6344722171
  0.000000000E+00 1.325697865E-03-1.337355003E-03 0.000000000E+00-1.058916625E-04
  1.114043293E-04 0.000000000E+00-1.572959959E-03 1.540309324E-03 7.127645599E-05
  1.765768791E-04-1.571793248E-04-7.127645564E-05 1.765768777E-04-1.571793247E-04
 -5.408313809E-15 1.871625273E-03 1.680399170E-03
1   ATOM  4
                                        -------------------
   COORD  1                             NUCLEAR COORDINATES
                                        -------------------
     VIB  1

                       ATOM             X              Y              Z

                 1  C                0.000000       0.000000       0.000000
                 2  H                0.000000      -1.677226      -1.185886
                 3  H                0.000000       1.677226      -1.185886
                 4  H               -1.667226       0.000000       1.185886
                 5  H                1.677226       0.000000       1.185886

 MOPAC ONE- AND TWO-ELECTRON INTEGRALS REQUIRE       118 WORDS.
 ...... END OF ONE- AND TWO-ELECTRON INTEGRALS......
 STEP CPU TIME =     0.00 TOTAL CPU TIME =          0.0 (      0.0 MIN)
 TOTAL WALL CLOCK TIME=          0.0 SECONDS, CPU UTILIZATION IS   100.00%
 ...... END OF ONE-ELECTRON INTEGRALS ......
 STEP CPU TIME =     0.00 TOTAL CPU TIME =          0.0 (      0.0 MIN)
 TOTAL WALL CLOCK TIME=          0.0 SECONDS, CPU UTILIZATION IS   100.00%

          --------------------------
               R-PM3 SCF CALCULATION
          --------------------------
     DENSITY MATRIX CONV=  1.00E-05

 ITER EX DEM     TOTAL ENERGY        E CHANGE  DENSITY CHANGE    DIIS ERROR
   1  0  0       -6.6344655284    -6.6344655284   0.000552160   0.000000000
   2  1  0       -6.6344665592    -0.0000010309   0.000216572   0.000000000
   3  2  0       -6.6344666830    -0.0000001237   0.000097269   0.000000000
   4  3  0       -6.6344667046    -0.0000000216   0.000046649   0.000000000
   5  4  0       -6.6344667090    -0.0000000044   0.000022163   0.000000000
   6  5  0       -6.6344667100    -0.0000000010   0.000010489   0.000000000
   7  6  0       -6.6344667102    -0.0000000002   0.000004958   0.000000000

          -----------------
          DENSITY CONVERGED
          -----------------
     TIME TO FORM FOCK OPERATORS=       0.0 SECONDS (       0.0 SEC/ITER)
     TIME TO SOLVE SCF EQUATIONS=       0.0 SECONDS (       0.0 SEC/ITER)

 FINAL R-PM3 ENERGY IS       -6.6344667102 AFTER   7 ITERATIONS

 HEAT OF FORMATION IS       -13.00649 KCAL/MOL

 ...... END OF RHF CALCULATION ......
 STEP CPU TIME =     0.00 TOTAL CPU TIME =          0.0 (      0.0 MIN)
 TOTAL WALL CLOCK TIME=          0.0 SECONDS, CPU UTILIZATION IS   100.00%
 STEP CPU TIME =     0.00 TOTAL CPU TIME =          0.0 (      0.0 MIN)
 TOTAL WALL CLOCK TIME=          0.0 SECONDS, CPU UTILIZATION IS   100.00%

 UNITS ARE HARTREE/BOHR    E'X               E'Y               E'Z 
    1 C               -0.002284821       0.000000000       0.001334948
    2 H               -0.000022545       0.000052232       0.000077995
    3 H               -0.000022545      -0.000052232       0.000077995
    4 H                0.002656243       0.000000000      -0.001588665
    5 H               -0.000326332       0.000000000       0.000097728
  $VIB   
          IVIB=   1 IATOM=   4 ICOORD=   1 E=       -6.6344667102
 -2.284821423E-03 0.000000000E+00 1.334948023E-03-2.254463688E-05 5.223212802E-05
  7.799460111E-05-2.254463671E-05-5.223212664E-05 7.799460232E-05 2.656242810E-03
  0.000000000E+00-1.588665127E-03-3.263321135E-04 0.000000000E+00 9.772790071E-05
  3.491029140E-04 4.347000279E-17 1.875966819E-03
1   ATOM  4
                                        -------------------
   COORD  2                             NUCLEAR COORDINATES
                                        -------------------
     VIB  1

                       ATOM             X              Y              Z

                 1  C                0.000000       0.000000       0.000000
                 2  H                0.000000      -1.677226      -1.185886
                 3  H                0.000000       1.677226      -1.185886
                 4  H               -1.677226       0.010000       1.185886
                 5  H                1.677226       0.000000       1.185886

 MOPAC ONE- AND TWO-ELECTRON INTEGRALS REQUIRE       118 WORDS.
 ...... END OF ONE- AND TWO-ELECTRON INTEGRALS......
 STEP CPU TIME =     0.00 TOTAL CPU TIME =          0.0 (      0.0 MIN)
 TOTAL WALL CLOCK TIME=          0.0 SECONDS, CPU UTILIZATION IS   100.00%
 ...... END OF ONE-ELECTRON INTEGRALS ......
 STEP CPU TIME =     0.00 TOTAL CPU TIME =          0.0 (      0.0 MIN)
 TOTAL WALL CLOCK TIME=          0.0 SECONDS, CPU UTILIZATION IS   100.00%

          --------------------------
               R-PM3 SCF CALCULATION
          --------------------------
     DENSITY MATRIX CONV=  1.00E-05

 ITER EX DEM     TOTAL ENERGY        E CHANGE  DENSITY CHANGE    DIIS ERROR
   1  0  0       -6.6344761458    -6.6344761458   0.001087969   0.000000000
   2  1  0       -6.6344774688    -0.0000013229   0.000494676   0.000000000
   3  2  0       -6.6344777399    -0.0000002711   0.000228027   0.000000000
   4  3  0       -6.6344777978    -0.0000000579   0.000106018   0.000000000
   5  4  0       -6.6344778104    -0.0000000126   0.000049565   0.000000000
   6  5  0       -6.6344778132    -0.0000000028   0.000023258   0.000000000
   7  6  0       -6.6344778138    -0.0000000006   0.000010940   0.000000000
   8  7  0       -6.6344778139    -0.0000000001   0.000005155   0.000000000

          -----------------
          DENSITY CONVERGED
          -----------------
     TIME TO FORM FOCK OPERATORS=       0.0 SECONDS (       0.0 SEC/ITER)
     TIME TO SOLVE SCF EQUATIONS=       0.0 SECONDS (       0.0 SEC/ITER)

 FINAL R-PM3 ENERGY IS       -6.6344778139 AFTER   8 ITERATIONS

 HEAT OF FORMATION IS       -13.01346 KCAL/MOL

 ...... END OF RHF CALCULATION ......
 STEP CPU TIME =     0.00 TOTAL CPU TIME =          0.0 (      0.0 MIN)
 TOTAL WALL CLOCK TIME=          0.0 SECONDS, CPU UTILIZATION IS   100.00%
 STEP CPU TIME =     0.00 TOTAL CPU TIME =          0.0 (      0.0 MIN)
 TOTAL WALL CLOCK TIME=          0.0 SECONDS, CPU UTILIZATION IS   100.00%

 UNITS ARE HARTREE/BOHR    E'X               E'Y               E'Z 
    1 C                0.000004869      -0.000407011      -0.000003933
    2 H                0.000200050      -0.000022251      -0.000166971
    3 H               -0.000200788      -0.000022727       0.000183347
    4 H               -0.000004436       0.000427199      -0.000005022
    5 H                0.000000305       0.000024789      -0.000007420
  $VIB   
          IVIB=   1 IATOM=   4 ICOORD=   2 E=       -6.6344778139
  4.869039999E-06-4.070105475E-04-3.933036708E-06 2.000502084E-04-2.225070878E-05
 -1.669712203E-04-2.007880364E-04-2.272697504E-05 1.833466748E-04-4.436425514E-06
  4.271990357E-04-5.022002577E-06 3.052135230E-07 2.478919560E-05-7.420415148E-06
  7.272300295E-06 2.994573699E-03-6.638023171E-06
1   ATOM  4
                                        -------------------
   COORD  3                             NUCLEAR COORDINATES
                                        -------------------
     VIB  1

                       ATOM             X              Y              Z

                 1  C                0.000000       0.000000       0.000000
                 2  H                0.000000      -1.677226      -1.185886
                 3  H                0.000000       1.677226      -1.185886
                 4  H               -1.677226       0.000000       1.195886
                 5  H                1.677226       0.000000       1.185886

 MOPAC ONE- AND TWO-ELECTRON INTEGRALS REQUIRE       118 WORDS.
 ...... END OF ONE- AND TWO-ELECTRON INTEGRALS......
 STEP CPU TIME =     0.00 TOTAL CPU TIME =          0.0 (      0.0 MIN)
 TOTAL WALL CLOCK TIME=          0.0 SECONDS, CPU UTILIZATION IS   100.00%
 ...... END OF ONE-ELECTRON INTEGRALS ......
 STEP CPU TIME =     0.00 TOTAL CPU TIME =          0.0 (      0.0 MIN)
 TOTAL WALL CLOCK TIME=          0.0 SECONDS, CPU UTILIZATION IS   100.00%

          --------------------------
               R-PM3 SCF CALCULATION
          --------------------------
     DENSITY MATRIX CONV=  1.00E-05

 ITER EX DEM     TOTAL ENERGY        E CHANGE  DENSITY CHANGE    DIIS ERROR
   1  0  0       -6.6344709798    -6.6344709798   0.000816328   0.000000000
   2  1  0       -6.6344721478    -0.0000011679   0.000353777   0.000000000
   3  2  0       -6.6344723433    -0.0000001956   0.000158922   0.000000000
   4  3  0       -6.6344723827    -0.0000000394   0.000072883   0.000000000
   5  4  0       -6.6344723912    -0.0000000085   0.000033826   0.000000000
   6  5  0       -6.6344723930    -0.0000000019   0.000015810   0.000000000
   7  6  0       -6.6344723934    -0.0000000004   0.000007421   0.000000000
   8  7  0       -6.6344723935    -0.0000000001   0.000003493   0.000000000

          -----------------
          DENSITY CONVERGED
          -----------------
     TIME TO FORM FOCK OPERATORS=       0.0 SECONDS (       0.0 SEC/ITER)
     TIME TO SOLVE SCF EQUATIONS=       0.0 SECONDS (       0.0 SEC/ITER)

 FINAL R-PM3 ENERGY IS       -6.6344723935 AFTER   8 ITERATIONS

 HEAT OF FORMATION IS       -13.01006 KCAL/MOL

 ...... END OF RHF CALCULATION ......
 STEP CPU TIME =     0.00 TOTAL CPU TIME =          0.0 (      0.0 MIN)
 TOTAL WALL CLOCK TIME=          0.0 SECONDS, CPU UTILIZATION IS   100.00%
 STEP CPU TIME =     0.00 TOTAL CPU TIME =          0.0 (      0.0 MIN)
 TOTAL WALL CLOCK TIME=          0.0 SECONDS, CPU UTILIZATION IS   100.00%

 UNITS ARE HARTREE/BOHR    E'X               E'Y               E'Z 
    1 C                0.001299933       0.000000000      -0.001332984
    2 H                0.000173750      -0.000068706      -0.000139880
    3 H                0.000173750       0.000068706      -0.000139880
    4 H               -0.001542979       0.000000000       0.001517003
    5 H               -0.000104454       0.000000000       0.000095741
  $VIB   
          IVIB=   1 IATOM=   4 ICOORD=   3 E=       -6.6344723935
  1.299933476E-03 0.000000000E+00-1.332984105E-03 1.737496755E-04-6.870602600E-05
 -1.398797747E-04 1.737496758E-04 6.870602427E-05-1.398797731E-04-1.542978636E-03
  0.000000000E+00 1.517002517E-03-1.044541913E-04 0.000000000E+00 9.574113554E-05
  1.869843955E-03-3.920118482E-16 1.663351560E-03
1   ATOM  5
                                        -------------------
   COORD  1                             NUCLEAR COORDINATES
                                        -------------------
     VIB  1

                       ATOM             X              Y              Z

                 1  C                0.000000       0.000000       0.000000
                 2  H                0.000000      -1.677226      -1.185886
                 3  H                0.000000       1.677226      -1.185886
                 4  H               -1.677226       0.000000       1.185886
                 5  H                1.687226       0.000000       1.185886

 MOPAC ONE- AND TWO-ELECTRON INTEGRALS REQUIRE       118 WORDS.
 ...... END OF ONE- AND TWO-ELECTRON INTEGRALS......
 STEP CPU TIME =     0.00 TOTAL CPU TIME =          0.0 (      0.0 MIN)
 TOTAL WALL CLOCK TIME=          0.0 SECONDS, CPU UTILIZATION IS   100.00%
 ...... END OF ONE-ELECTRON INTEGRALS ......
 STEP CPU TIME =     0.00 TOTAL CPU TIME =          0.0 (      0.0 MIN)
 TOTAL WALL CLOCK TIME=          0.0 SECONDS, CPU UTILIZATION IS   100.00%

          --------------------------
               R-PM3 SCF CALCULATION
          --------------------------
     DENSITY MATRIX CONV=  1.00E-05

 ITER EX DEM     TOTAL ENERGY        E CHANGE  DENSITY CHANGE    DIIS ERROR
   1  0  0       -6.6344657128    -6.6344657128   0.000548446   0.000000000
   2  1  0       -6.6344667322    -0.0000010194   0.000214962   0.000000000
   3  2  0       -6.6344668538    -0.0000001216   0.000096427   0.000000000
   4  3  0       -6.6344668750    -0.0000000212   0.000046271   0.000000000
   5  4  0       -6.6344668793    -0.0000000044   0.000021993   0.000000000
   6  5  0       -6.6344668803    -0.0000000009   0.000010413   0.000000000
   7  6  0       -6.6344668805    -0.0000000002   0.000004923   0.000000000

          -----------------
          DENSITY CONVERGED
          -----------------
     TIME TO FORM FOCK OPERATORS=       0.0 SECONDS (       0.0 SEC/ITER)
     TIME TO SOLVE SCF EQUATIONS=       0.0 SECONDS (       0.0 SEC/ITER)

 FINAL R-PM3 ENERGY IS       -6.6344668805 AFTER   7 ITERATIONS

 HEAT OF FORMATION IS       -13.00660 KCAL/MOL

 ...... END OF RHF CALCULATION ......
 STEP CPU TIME =     0.00 TOTAL CPU TIME =          0.0 (      0.0 MIN)
 TOTAL WALL CLOCK TIME=          0.0 SECONDS, CPU UTILIZATION IS   100.00%
 STEP CPU TIME =     0.01 TOTAL CPU TIME =          0.0 (      0.0 MIN)
 TOTAL WALL CLOCK TIME=          0.0 SECONDS, CPU UTILIZATION IS   150.00%

 UNITS ARE HARTREE/BOHR    E'X               E'Y               E'Z 
    1 C               -0.002243117       0.000000000      -0.001290644
    2 H               -0.000022714      -0.000051119      -0.000062052
    3 H               -0.000022714       0.000051119      -0.000062052
    4 H               -0.000316732       0.000000000      -0.000112042
    5 H                0.002605278       0.000000000       0.001526791
  $VIB   
          IVIB=   1 IATOM=   5 ICOORD=   1 E=       -6.6344668805
 -2.243117422E-03 0.000000000E+00-1.290644467E-03-2.271415788E-05-5.111904540E-05
 -6.205238522E-05-2.271415771E-05 5.111904540E-05-6.205238384E-05-3.167318898E-04
  0.000000000E+00-1.120422452E-04 2.605277628E-03 0.000000000E+00 1.526791482E-03
  3.413718835E-04 4.168865932E-16-1.860213115E-03
1   ATOM  5
                                        -------------------
   COORD  2                             NUCLEAR COORDINATES
                                        -------------------
     VIB  1

                       ATOM             X              Y              Z

                 1  C                0.000000       0.000000       0.000000
                 2  H                0.000000      -1.677226      -1.185886
                 3  H                0.000000       1.677226      -1.185886
                 4  H               -1.677226       0.000000       1.185886
                 5  H                1.677226       0.010000       1.185886

 MOPAC ONE- AND TWO-ELECTRON INTEGRALS REQUIRE       118 WORDS.
 ...... END OF ONE- AND TWO-ELECTRON INTEGRALS......
 STEP CPU TIME =     0.00 TOTAL CPU TIME =          0.0 (      0.0 MIN)
 TOTAL WALL CLOCK TIME=          0.0 SECONDS, CPU UTILIZATION IS   150.00%
 ...... END OF ONE-ELECTRON INTEGRALS ......
 STEP CPU TIME =     0.00 TOTAL CPU TIME =          0.0 (      0.0 MIN)
 TOTAL WALL CLOCK TIME=          0.0 SECONDS, CPU UTILIZATION IS   150.00%

          --------------------------
               R-PM3 SCF CALCULATION
          --------------------------
     DENSITY MATRIX CONV=  1.00E-05

 ITER EX DEM     TOTAL ENERGY        E CHANGE  DENSITY CHANGE    DIIS ERROR
   1  0  0       -6.6344761458    -6.6344761458   0.001087969   0.000000000
   2  1  0       -6.6344774688    -0.0000013229   0.000494676   0.000000000
   3  2  0       -6.6344777399    -0.0000002711   0.000228027   0.000000000
   4  3  0       -6.6344777978    -0.0000000579   0.000106018   0.000000000
   5  4  0       -6.6344778104    -0.0000000126   0.000049565   0.000000000
   6  5  0       -6.6344778132    -0.0000000028   0.000023258   0.000000000
   7  6  0       -6.6344778138    -0.0000000006   0.000010940   0.000000000
   8  7  0       -6.6344778139    -0.0000000001   0.000005155   0.000000000

          -----------------
          DENSITY CONVERGED
          -----------------
     TIME TO FORM FOCK OPERATORS=       0.0 SECONDS (       0.0 SEC/ITER)
     TIME TO SOLVE SCF EQUATIONS=       0.0 SECONDS (       0.0 SEC/ITER)

 FINAL R-PM3 ENERGY IS       -6.6344778139 AFTER   8 ITERATIONS

 HEAT OF FORMATION IS       -13.01346 KCAL/MOL

 ...... END OF RHF CALCULATION ......
 STEP CPU TIME =     0.00 TOTAL CPU TIME =          0.0 (      0.0 MIN)
 TOTAL WALL CLOCK TIME=          0.0 SECONDS, CPU UTILIZATION IS   150.00%
 STEP CPU TIME =     0.00 TOTAL CPU TIME =          0.0 (      0.0 MIN)
 TOTAL WALL CLOCK TIME=          0.0 SECONDS, CPU UTILIZATION IS   100.00%

 UNITS ARE HARTREE/BOHR    E'X               E'Y               E'Z 
    1 C               -0.000004869      -0.000407011      -0.000003933
    2 H               -0.000200050      -0.000022251      -0.000166971
    3 H                0.000200788      -0.000022727       0.000183347
    4 H               -0.000000305       0.000024789      -0.000007420
    5 H                0.000004436       0.000427199      -0.000005022
  $VIB   
          IVIB=   1 IATOM=   5 ICOORD=   2 E=       -6.6344778139
 -4.869035854E-06-4.070105502E-04-3.933035327E-06-2.000502096E-04-2.225070896E-05
 -1.669712200E-04 2.007880349E-04-2.272697384E-05 1.833466748E-04-3.052150775E-07
  2.478919422E-05-7.420415320E-06 4.436425687E-06 4.271990388E-04-5.022004132E-06
 -7.272300302E-06 2.994573699E-03-6.638023170E-06
1   ATOM  5
                                        -------------------
   COORD  3                             NUCLEAR COORDINATES
                                        -------------------
     VIB  1

                       ATOM             X              Y              Z

                 1  C                0.000000       0.000000       0.000000
                 2  H                0.000000      -1.677226      -1.185886
                 3  H                0.000000       1.677226      -1.185886
                 4  H               -1.677226       0.000000       1.185886
                 5  H                1.677226       0.000000       1.195886

 MOPAC ONE- AND TWO-ELECTRON INTEGRALS REQUIRE       118 WORDS.
 ...... END OF ONE- AND TWO-ELECTRON INTEGRALS......
 STEP CPU TIME =     0.00 TOTAL CPU TIME =          0.0 (      0.0 MIN)
 TOTAL WALL CLOCK TIME=          0.0 SECONDS, CPU UTILIZATION IS   100.00%
 ...... END OF ONE-ELECTRON INTEGRALS ......
 STEP CPU TIME =     0.00 TOTAL CPU TIME =          0.0 (      0.0 MIN)
 TOTAL WALL CLOCK TIME=          0.0 SECONDS, CPU UTILIZATION IS   100.00%

          --------------------------
               R-PM3 SCF CALCULATION
          --------------------------
     DENSITY MATRIX CONV=  1.00E-05

 ITER EX DEM     TOTAL ENERGY        E CHANGE  DENSITY CHANGE    DIIS ERROR
   1  0  0       -6.6344709798    -6.6344709798   0.000816328   0.000000000
   2  1  0       -6.6344721478    -0.0000011679   0.000353777   0.000000000
   3  2  0       -6.6344723433    -0.0000001956   0.000158922   0.000000000
   4  3  0       -6.6344723827    -0.0000000394   0.000072883   0.000000000
   5  4  0       -6.6344723912    -0.0000000085   0.000033826   0.000000000
   6  5  0       -6.6344723930    -0.0000000019   0.000015810   0.000000000
   7  6  0       -6.6344723934    -0.0000000004   0.000007421   0.000000000
   8  7  0       -6.6344723935    -0.0000000001   0.000003493   0.000000000

          -----------------
          DENSITY CONVERGED
          -----------------
     TIME TO FORM FOCK OPERATORS=       0.0 SECONDS (       0.0 SEC/ITER)
     TIME TO SOLVE SCF EQUATIONS=       0.0 SECONDS (       0.0 SEC/ITER)

 FINAL R-PM3 ENERGY IS       -6.6344723935 AFTER   8 ITERATIONS

 HEAT OF FORMATION IS       -13.01006 KCAL/MOL

 ...... END OF RHF CALCULATION ......
 STEP CPU TIME =     0.00 TOTAL CPU TIME =          0.0 (      0.0 MIN)
 TOTAL WALL CLOCK TIME=          0.0 SECONDS, CPU UTILIZATION IS   100.00%
 STEP CPU TIME =     0.00 TOTAL CPU TIME =          0.0 (      0.0 MIN)
 TOTAL WALL CLOCK TIME=          0.0 SECONDS, CPU UTILIZATION IS   100.00%

 UNITS ARE HARTREE/BOHR    E'X               E'Y               E'Z 
    1 C               -0.001299933       0.000000000      -0.001332984
    2 H               -0.000173750      -0.000068706      -0.000139880
    3 H               -0.000173750       0.000068706      -0.000139880
    4 H                0.000104454       0.000000000       0.000095741
    5 H                0.001542979       0.000000000       0.001517003
  $VIB   
          IVIB=   1 IATOM=   5 ICOORD=   3 E=       -6.6344723935
 -1.299933479E-03 0.000000000E+00-1.332984106E-03-1.737496726E-04-6.870602410E-05
 -1.398797757E-04-1.737496755E-04 6.870602566E-05-1.398797731E-04 1.044541914E-04
  0.000000000E+00 9.574113657E-05 1.542978636E-03 0.000000000E+00 1.517002519E-03
 -1.869843955E-03 8.766306647E-16 1.663351560E-03
1   ATOM  1
                                        -------------------
   COORD  1                             NUCLEAR COORDINATES
                                        -------------------
     VIB  2

                       ATOM             X              Y              Z

                 1  C               -0.010000       0.000000       0.000000
                 2  H                0.000000      -1.677226      -1.185886
                 3  H                0.000000       1.677226      -1.185886
                 4  H               -1.677226       0.000000       1.185886
                 5  H                1.677226       0.000000       1.185886

 MOPAC ONE- AND TWO-ELECTRON INTEGRALS REQUIRE       118 WORDS.
 ...... END OF ONE- AND TWO-ELECTRON INTEGRALS......
 STEP CPU TIME =     0.00 TOTAL CPU TIME =          0.0 (      0.0 MIN)
 TOTAL WALL CLOCK TIME=          0.0 SECONDS, CPU UTILIZATION IS   100.00%
 ...... END OF ONE-ELECTRON INTEGRALS ......
 STEP CPU TIME =     0.00 TOTAL CPU TIME =          0.0 (      0.0 MIN)
 TOTAL WALL CLOCK TIME=          0.0 SECONDS, CPU UTILIZATION IS   100.00%

          --------------------------
               R-PM3 SCF CALCULATION
          --------------------------
     DENSITY MATRIX CONV=  1.00E-05

 ITER EX DEM     TOTAL ENERGY        E CHANGE  DENSITY CHANGE    DIIS ERROR
   1  0  0       -6.6344472919    -6.6344472919   0.001457018   0.000000000
   2  1  0       -6.6344524566    -0.0000051647   0.000498654   0.000000000
   3  2  0       -6.6344531086    -0.0000006520   0.000187446   0.000000000
   4  3  0       -6.6344532181    -0.0000001095   0.000092546   0.000000000
   5  4  0       -6.6344532397    -0.0000000216   0.000045730   0.000000000
   6  5  0       -6.6344532443    -0.0000000046   0.000022163   0.000000000
   7  6  0       -6.6344532453    -0.0000000010   0.000011110   0.000000000
   8  7  0       -6.6344532455    -0.0000000002   0.000005499   0.000000000
   9  8  0       -6.6344532456    -0.0000000001   0.000002696   0.000000000

          -----------------
          DENSITY CONVERGED
          -----------------
     TIME TO FORM FOCK OPERATORS=       0.0 SECONDS (       0.0 SEC/ITER)
     TIME TO SOLVE SCF EQUATIONS=       0.0 SECONDS (       0.0 SEC/ITER)

 FINAL R-PM3 ENERGY IS       -6.6344532456 AFTER   9 ITERATIONS

 HEAT OF FORMATION IS       -12.99804 KCAL/MOL

 ...... END OF RHF CALCULATION ......
 STEP CPU TIME =     0.00 TOTAL CPU TIME =          0.0 (      0.0 MIN)
 TOTAL WALL CLOCK TIME=          0.0 SECONDS, CPU UTILIZATION IS   100.00%
 STEP CPU TIME =     0.00 TOTAL CPU TIME =          0.0 (      0.0 MIN)
 TOTAL WALL CLOCK TIME=          0.0 SECONDS, CPU UTILIZATION IS   100.00%

 UNITS ARE HARTREE/BOHR    E'X               E'Y               E'Z 
    1 C               -0.005340847       0.000000000       0.000052805
    2 H                0.000406795      -0.000004689       0.000003150
    3 H                0.000406795       0.000004689       0.000003150
    4 H                0.002285112       0.000000000      -0.001342588
    5 H                0.002242145       0.000000000       0.001283483
  $VIB   
          IVIB=   2 IATOM=   1 ICOORD=   1 E=       -6.6344532456
 -5.340846917E-03 0.000000000E+00 5.280494872E-05 4.067950690E-04-4.688592151E-06
  3.149877332E-06 4.067950688E-04 4.688593360E-06 3.149880096E-06 2.285111651E-03
  0.000000000E+00-1.342587550E-03 2.242145128E-03 0.000000000E+00 1.283482844E-03
  6.697139467E-03 1.006831930E-15 3.440699058E-05
1   ATOM  1
                                        -------------------
   COORD  2                             NUCLEAR COORDINATES
                                        -------------------
     VIB  2

                       ATOM             X              Y              Z

                 1  C                0.000000      -0.010000       0.000000
                 2  H                0.000000      -1.677226      -1.185886
                 3  H                0.000000       1.677226      -1.185886
                 4  H               -1.677226       0.000000       1.185886
                 5  H                1.677226       0.000000       1.185886

 MOPAC ONE- AND TWO-ELECTRON INTEGRALS REQUIRE       118 WORDS.
 ...... END OF ONE- AND TWO-ELECTRON INTEGRALS......
 STEP CPU TIME =     0.00 TOTAL CPU TIME =          0.0 (      0.0 MIN)
 TOTAL WALL CLOCK TIME=          0.0 SECONDS, CPU UTILIZATION IS   100.00%
 ...... END OF ONE-ELECTRON INTEGRALS ......
 STEP CPU TIME =     0.00 TOTAL CPU TIME =          0.0 (      0.0 MIN)
 TOTAL WALL CLOCK TIME=          0.0 SECONDS, CPU UTILIZATION IS   100.00%

          --------------------------
               R-PM3 SCF CALCULATION
          --------------------------
     DENSITY MATRIX CONV=  1.00E-05

 ITER EX DEM     TOTAL ENERGY        E CHANGE  DENSITY CHANGE    DIIS ERROR
   1  0  0       -6.6344472919    -6.6344472919   0.001457018   0.000000000
   2  1  0       -6.6344524566    -0.0000051647   0.000498654   0.000000000
   3  2  0       -6.6344531086    -0.0000006520   0.000187446   0.000000000
   4  3  0       -6.6344532181    -0.0000001095   0.000092546   0.000000000
   5  4  0       -6.6344532397    -0.0000000216   0.000045730   0.000000000
   6  5  0       -6.6344532443    -0.0000000046   0.000022163   0.000000000
   7  6  0       -6.6344532453    -0.0000000010   0.000011110   0.000000000
   8  7  0       -6.6344532455    -0.0000000002   0.000005499   0.000000000
   9  8  0       -6.6344532456    -0.0000000001   0.000002696   0.000000000

          -----------------
          DENSITY CONVERGED
          -----------------
     TIME TO FORM FOCK OPERATORS=       0.0 SECONDS (       0.0 SEC/ITER)
     TIME TO SOLVE SCF EQUATIONS=       0.0 SECONDS (       0.0 SEC/ITER)

 FINAL R-PM3 ENERGY IS       -6.6344532456 AFTER   9 ITERATIONS

 HEAT OF FORMATION IS       -12.99804 KCAL/MOL

 ...... END OF RHF CALCULATION ......
 STEP CPU TIME =     0.00 TOTAL CPU TIME =          0.0 (      0.0 MIN)
 TOTAL WALL CLOCK TIME=          0.0 SECONDS, CPU UTILIZATION IS   100.00%
 STEP CPU TIME =     0.00 TOTAL CPU TIME =          0.0 (      0.0 MIN)
 TOTAL WALL CLOCK TIME=          0.0 SECONDS, CPU UTILIZATION IS   100.00%

 UNITS ARE HARTREE/BOHR    E'X               E'Y               E'Z 
    1 C                0.000000000      -0.005340847      -0.000052805
    2 H                0.000000000       0.002285112       0.001342588
    3 H                0.000000000       0.002242145      -0.001283483
    4 H               -0.000004689       0.000406795      -0.000003150
    5 H                0.000004689       0.000406795      -0.000003150
  $VIB   
          IVIB=   2 IATOM=   1 ICOORD=   2 E=       -6.6344532456
  0.000000000E+00-5.340846914E-03-5.280495010E-05 0.000000000E+00 2.285111650E-03
  1.342587554E-03 0.000000000E+00 2.242145127E-03-1.283482846E-03-4.688593533E-06
  4.067950703E-04-3.149878541E-06 4.688591978E-06 4.067950674E-04-3.149879923E-06
 -1.780366440E-15 6.697139467E-03-3.440699057E-05
1   ATOM  1
                                        -------------------
   COORD  3                             NUCLEAR COORDINATES
                                        -------------------
     VIB  2

                       ATOM             X              Y              Z

                 1  C                0.000000       0.000000      -0.010000
                 2  H                0.000000      -1.677226      -1.185886
                 3  H                0.000000       1.677226      -1.185886
                 4  H               -1.677226       0.000000       1.185886
                 5  H                1.677226       0.000000       1.185886

 MOPAC ONE- AND TWO-ELECTRON INTEGRALS REQUIRE       118 WORDS.
 ...... END OF ONE- AND TWO-ELECTRON INTEGRALS......
 STEP CPU TIME =     0.00 TOTAL CPU TIME =          0.0 (      0.0 MIN)
 TOTAL WALL CLOCK TIME=          0.0 SECONDS, CPU UTILIZATION IS   100.00%
 ...... END OF ONE-ELECTRON INTEGRALS ......
 STEP CPU TIME =     0.00 TOTAL CPU TIME =          0.0 (      0.0 MIN)
 TOTAL WALL CLOCK TIME=          0.0 SECONDS, CPU UTILIZATION IS   100.00%

          --------------------------
               R-PM3 SCF CALCULATION
          --------------------------
     DENSITY MATRIX CONV=  1.00E-05

 ITER EX DEM     TOTAL ENERGY        E CHANGE  DENSITY CHANGE    DIIS ERROR
   1  0  0       -6.6344472947    -6.6344472947   0.001050545   0.000000000
   2  1  0       -6.6344524596    -0.0000051649   0.000370857   0.000000000
   3  2  0       -6.6344531117    -0.0000006521   0.000178183   0.000000000
   4  3  0       -6.6344532212    -0.0000001095   0.000092562   0.000000000
   5  4  0       -6.6344532428    -0.0000000216   0.000045739   0.000000000
   6  5  0       -6.6344532474    -0.0000000046   0.000022167   0.000000000
   7  6  0       -6.6344532484    -0.0000000010   0.000010664   0.000000000
   8  7  0       -6.6344532487    -0.0000000002   0.000005118   0.000000000
   9  8  0       -6.6344532487    -0.0000000001   0.000002455   0.000000000

          -----------------
          DENSITY CONVERGED
          -----------------
     TIME TO FORM FOCK OPERATORS=       0.0 SECONDS (       0.0 SEC/ITER)
     TIME TO SOLVE SCF EQUATIONS=       0.0 SECONDS (       0.0 SEC/ITER)

 FINAL R-PM3 ENERGY IS       -6.6344532487 AFTER   9 ITERATIONS

 HEAT OF FORMATION IS       -12.99804 KCAL/MOL

 ...... END OF RHF CALCULATION ......
 STEP CPU TIME =     0.00 TOTAL CPU TIME =          0.0 (      0.0 MIN)
[...]
  1.833466736E-04-2.000502055E-04 2.225070896E-05-1.669712198E-04-3.052147321E-07
 -2.478919698E-05-7.420414284E-06 4.436424132E-06-4.271990343E-04-5.022002750E-06
 -7.272300301E-06-2.994573699E-03-6.638023171E-06
1   ATOM  5
                                        -------------------
   COORD  3                             NUCLEAR COORDINATES
                                        -------------------
     VIB  2

                       ATOM             X              Y              Z

                 1  C                0.000000       0.000000       0.000000
                 2  H                0.000000      -1.677226      -1.185886
                 3  H                0.000000       1.677226      -1.185886
                 4  H               -1.677226       0.000000       1.185886
                 5  H                1.677226       0.000000       1.175886

 MOPAC ONE- AND TWO-ELECTRON INTEGRALS REQUIRE       118 WORDS.
 ...... END OF ONE- AND TWO-ELECTRON INTEGRALS......
 STEP CPU TIME =     0.00 TOTAL CPU TIME =          0.0 (      0.0 MIN)
 TOTAL WALL CLOCK TIME=          0.1 SECONDS, CPU UTILIZATION IS   100.00%
 ...... END OF ONE-ELECTRON INTEGRALS ......
 STEP CPU TIME =     0.00 TOTAL CPU TIME =          0.0 (      0.0 MIN)
 TOTAL WALL CLOCK TIME=          0.1 SECONDS, CPU UTILIZATION IS   100.00%

          --------------------------
               R-PM3 SCF CALCULATION
          --------------------------
     DENSITY MATRIX CONV=  1.00E-05

 ITER EX DEM     TOTAL ENERGY        E CHANGE  DENSITY CHANGE    DIIS ERROR
   1  0  0       -6.6344707876    -6.6344707876   0.000821779   0.000000000
   2  1  0       -6.6344719680    -0.0000011804   0.000356506   0.000000000
   3  2  0       -6.6344721663    -0.0000001983   0.000160193   0.000000000
   4  3  0       -6.6344722062    -0.0000000399   0.000073464   0.000000000
   5  4  0       -6.6344722147    -0.0000000086   0.000034090   0.000000000
   6  5  0       -6.6344722166    -0.0000000019   0.000015930   0.000000000
   7  6  0       -6.6344722171    -0.0000000004   0.000007476   0.000000000
   8  7  0       -6.6344722171    -0.0000000001   0.000003518   0.000000000

          -----------------
          DENSITY CONVERGED
          -----------------
     TIME TO FORM FOCK OPERATORS=       0.0 SECONDS (       0.0 SEC/ITER)
     TIME TO SOLVE SCF EQUATIONS=       0.0 SECONDS (       0.0 SEC/ITER)

 FINAL R-PM3 ENERGY IS       -6.6344722171 AFTER   8 ITERATIONS

 HEAT OF FORMATION IS       -13.00995 KCAL/MOL

 ...... END OF RHF CALCULATION ......
 STEP CPU TIME =     0.00 TOTAL CPU TIME =          0.0 (      0.0 MIN)
 TOTAL WALL CLOCK TIME=          0.1 SECONDS, CPU UTILIZATION IS    83.33%
 STEP CPU TIME =     0.00 TOTAL CPU TIME =          0.0 (      0.0 MIN)
 TOTAL WALL CLOCK TIME=          0.1 SECONDS, CPU UTILIZATION IS    83.33%

 UNITS ARE HARTREE/BOHR    E'X               E'Y               E'Z 
    1 C                0.001325698       0.000000000       0.001337355
    2 H                0.000176577       0.000071276       0.000157179
    3 H                0.000176577      -0.000071276       0.000157179
    4 H               -0.000105892       0.000000000      -0.000111404
    5 H               -0.001572960       0.000000000      -0.001540309
  $VIB   
          IVIB=   2 IATOM=   5 ICOORD=   3 E=       -6.6344722171
  1.325697863E-03 0.000000000E+00 1.337355001E-03 1.765768805E-04 7.127645478E-05
  1.571793274E-04 1.765768779E-04-7.127645460E-05 1.571793266E-04-1.058916639E-04
  0.000000000E+00-1.114043322E-04-1.572959958E-03 0.000000000E+00-1.540309322E-03
  1.871625273E-03 7.647457991E-16-1.680399170E-03
 ...... END OF NUMERICAL HESSIAN CALCULATION ......
 STEP CPU TIME =     0.00 TOTAL CPU TIME =          0.0 (      0.0 MIN)
 TOTAL WALL CLOCK TIME=          0.1 SECONDS, CPU UTILIZATION IS    83.33%

          ---------------
          ENERGY GRADIENT
          ---------------

 UNITS ARE HARTREE/BOHR    E'X               E'Y               E'Z 
    1 C                0.000000000       0.000000000       0.000000000
    2 H                0.000000000       0.000000030       0.000007401
    3 H                0.000000000      -0.000000030       0.000007401
    4 H                0.000000030       0.000000000      -0.000007401
    5 H               -0.000000030       0.000000000      -0.000007401

          -------------------------------
          CARTESIAN FORCE CONSTANT MATRIX
          -------------------------------

                                   1                          2
                               C                          H         
                          X        Y        Z        X        Y        Z
  1   C            X 0.534085 0.000000 0.000000-0.040690-0.000000 0.000000
                   Y 0.000000 0.534085 0.000000-0.000000-0.226380-0.131293
                   Z 0.000000 0.000000 0.534003-0.000000-0.131284-0.133509
  2   H            X-0.040690-0.000000-0.000000 0.042720 0.000000-0.000000
                   Y-0.000000-0.226380-0.131284 0.000000 0.263076 0.155785
                   Z 0.000000-0.131293-0.133509-0.000000 0.155785 0.152866
  3   H            X-0.040690-0.000000-0.000000 0.002479 0.000000-0.000000
                   Y 0.000000-0.226380 0.131284-0.000000-0.032153 0.010503
                   Z-0.000000 0.131293-0.133509 0.000000-0.010503 0.010357
  4   H            X-0.226380 0.000000 0.131284-0.002256 0.005168 0.007001
                   Y 0.000000-0.040690 0.000000 0.020042-0.002256-0.017516
                   Z 0.131293 0.000000-0.133509 0.017516-0.007001-0.014853
  5   H            X-0.226380 0.000000-0.131284-0.002256-0.005168-0.007001
                   Y 0.000000-0.040690 0.000000-0.020042-0.002256-0.017516
                   Z-0.131293 0.000000-0.133509-0.017516-0.007001-0.014853

                                   3                          4
                               H                          H         
                          X        Y        Z        X        Y        Z
  3   H            X 0.042720 0.000000 0.000000-0.002256-0.020042 0.017516
                   Y 0.000000 0.263076-0.155785-0.005168-0.002256 0.007001
                   Z 0.000000-0.155785 0.152866 0.007001 0.017516-0.014853
  4   H            X-0.002256-0.005168 0.007001 0.263076-0.000000-0.155785
                   Y-0.020042-0.002256 0.017516-0.000000 0.042720 0.000000
                   Z 0.017516 0.007001-0.014853-0.155785 0.000000 0.152866
  5   H            X-0.002256 0.005168-0.007001-0.032153-0.000000-0.010503
                   Y 0.020042-0.002256 0.017516-0.000000 0.002479-0.000000
                   Z-0.017516 0.007001-0.014853 0.010503-0.000000 0.010357

                                   5
                               H         
                          X        Y        Z
  5   H            X 0.263076 0.000000 0.155785
                   Y 0.000000 0.042720-0.000000
                   Z 0.155785-0.000000 0.152866

          ------------------------          ----------------
          DIPOLE DERIVATIVE TENSOR          (DEBYE/ANGSTROM)
          ------------------------          ----------------

        ATOM                 MU-X           MU-Y           MU-Z
     C          D/DX    -1.265575850    0.000000000    0.000000000
                D/DY     0.000000000   -1.265575850    0.000000000
                D/DZ     0.000000000    0.000000000   -1.265727720
     H          D/DX     0.565892374    0.000000000    0.000000000
                D/DY     0.000000000    0.065240408   -0.353017816
                D/DZ    -0.000000000   -0.353517582    0.315938633
     H          D/DX     0.565892374    0.000000000    0.000000000
                D/DY     0.000000000    0.065240408    0.353017816
                D/DZ    -0.000000000    0.353517582    0.315938633
     H          D/DX     0.065240408   -0.000000000    0.353017816
                D/DY     0.000000000    0.565892374   -0.000000000
                D/DZ     0.353517582   -0.000000000    0.315938633
     H          D/DX     0.065240408    0.000000000   -0.353017816
                D/DY    -0.000000000    0.565892374    0.000000000
                D/DZ    -0.353517582    0.000000000    0.315938633

          --------------------------------------------------------
          NORMAL COORDINATE ANALYSIS IN THE HARMONIC APPROXIMATION
          --------------------------------------------------------

          ATOMIC WEIGHTS (AMU)

    1     C                12.00000
    2     H                 1.00782
    3     H                 1.00782
    4     H                 1.00782
    5     H                 1.00782

 MODES    1 TO    6 ARE TAKEN AS ROTATIONS AND TRANSLATIONS.

 ANALYZING SYMMETRY OF NORMAL MODES...

     FREQUENCIES IN CM**-1, IR INTENSITIES IN DEBYE**2/AMU-ANGSTROM**2,
     REDUCED MASSES IN AMU.

                            1           2           3           4           5
       FREQUENCY:         5.76        5.76        0.10       64.19       70.02  
        SYMMETRY:         A           A           A           A           A   
    REDUCED MASS:      3.16069     3.16069     3.20674     1.00783     1.01249
    IR INTENSITY:      0.00000     0.00000     0.00000     0.00000     0.00000

  1   C            X  0.13768852  0.20738271  0.00000160 -0.00000008 -0.01851789
                   Y  0.20738270 -0.13768852  0.00000014  0.00000005 -0.00875081
                   Z -0.00000101 -0.00000126  0.24976432  0.00000000  0.00000001
  2   H            X  0.15360403  0.23135433  0.00000174  0.49805590  0.29890297
                   Y  0.18332766 -0.12171758  0.00001909  0.00000040 -0.15867156
                   Z  0.03401430 -0.02258515  0.24973062 -0.00000048  0.21208715
  3   H            X  0.15360406  0.23135416  0.00000176 -0.49805441  0.29890466
                   Y  0.18332766 -0.12171758 -0.00001889  0.00000040 -0.15867156
                   Z -0.03401632  0.02258264  0.24973049  0.00000049 -0.21208712
  4   H            X  0.12171760  0.18332772 -0.00001754 -0.00000090 -0.33577051
                   Y  0.23135431 -0.15360415  0.00000019 -0.49805545  0.14125068
                   Z -0.02258487 -0.03401649  0.24973034 -0.00000115 -0.44880510
  5   H            X  0.12171760  0.18332772  0.00002044 -0.00000090 -0.33577051
                   Y  0.23135428 -0.15360397  0.00000018  0.49805486  0.14124899
                   Z  0.02258286  0.03401397  0.24973077  0.00000116  0.44880513

 TRANS. SAYVETZ    X  2.20721431  3.32444620  0.00002564 -0.00000127 -0.29652502
                   Y  3.32444615 -2.20721429  0.00000228  0.00000081 -0.14012587
                   Z -0.00001614 -0.00002013  4.00391058  0.00000007  0.00000024
               TOTAL  3.99045576  3.99045580  4.00391058  0.00000151  0.32796699

   ROT. SAYVETZ    X -0.22979517  0.15256867 -0.00000042  0.00000331 -1.43391478
                   Y -0.15256848 -0.22979464 -0.00000143 -0.00000784 -3.03435803
                   Z -0.00000011  0.00000058 -0.00000006  3.36755132 -0.00000571
               TOTAL  0.27583140  0.27583106  0.00000149  3.36755132  3.35610492

                            6           7           8           9          10
       FREQUENCY:        70.02     1362.61     1362.74     1362.74     1451.01  
        SYMMETRY:         A           A           A           A           A   
    REDUCED MASS:      1.01249     1.19026     1.19020     1.19020     1.00782
    IR INTENSITY:      0.00000     1.00091     1.00157     1.00157     0.00000

  1   C            X -0.00875079 -0.00000024  0.06064034 -0.10130351  0.00000000
                   Y  0.01851792 -0.00000025 -0.10130351 -0.06064034  0.00000000
                   Z  0.00000003  0.11808428 -0.00000009 -0.00000034 -0.00000000
  2   H            X  0.14124891  0.00000113 -0.28515855  0.47637534  0.00000033
                   Y  0.33577053  0.28800958  0.12692875  0.07597894  0.28754935
                   Z -0.44880508 -0.35157238 -0.24718846 -0.14796632 -0.40666240
  3   H            X  0.14125081  0.00000113 -0.28515856  0.47637535 -0.00000033
                   Y  0.33577054 -0.28800895  0.12692920  0.07598057 -0.28754935
                   Z  0.44880514 -0.35157115  0.24718901  0.14796832 -0.40666240
  4   H            X -0.15867154 -0.28800896 -0.07597953  0.12692980  0.28754936
                   Y -0.29890283  0.00000119  0.47637535  0.28515855  0.00000033
                   Z -0.21208711 -0.35157117 -0.14796704  0.24718974  0.40666240
  5   H            X -0.15867153  0.28800956 -0.07597999  0.12692815 -0.28754936
                   Y -0.29890472  0.00000119  0.47637534  0.28515856 -0.00000034
                   Z  0.21208716 -0.35157234  0.14796760 -0.24718774  0.40666240

 TRANS. SAYVETZ    X -0.14012544  0.00000000 -0.00024439  0.00040828 -0.00000000
                   Y  0.29652555  0.00000000  0.00040828  0.00024439  0.00000000
                   Z  0.00000045 -0.00027984  0.00000000  0.00000000  0.00000000
               TOTAL  0.32796729  0.00027984  0.00047584  0.00047584  0.00000000

   ROT. SAYVETZ    X  3.03435800 -0.00000000  0.00037859  0.00022662  0.00000000
                   Y -1.43391481  0.00000000 -0.00022662  0.00037859 -0.00000000
                   Z -0.00000641  0.00000000  0.00000000 -0.00000000  0.00000000
               TOTAL  3.35610490  0.00000000  0.00044123  0.00044123  0.00000001

                           11          12          13          14          15
       FREQUENCY:      1451.23     3207.76     3207.86     3207.86     3311.31  
        SYMMETRY:         A           A           A           A           A   
    REDUCED MASS:      1.00782     1.09193     1.09195     1.09195     1.00782
    IR INTENSITY:      0.00000     0.02338     0.02386     0.02386     0.00000

  1   C            X -0.00000000 -0.00000039 -0.05844185 -0.05994187 -0.00000000
                   Y  0.00000000  0.00000018 -0.05994187  0.05844185  0.00000000
                   Z -0.00000000  0.08370915 -0.00000015 -0.00000041  0.00000000
  2   H            X  0.49805516 -0.00000018 -0.02662838 -0.02731185  0.00000000
                   Y -0.00000019 -0.40633797  0.38417889 -0.37456229 -0.40666240
                   Z  0.00000027 -0.24918131  0.29088626 -0.28360531 -0.28754936
  3   H            X -0.49805515 -0.00000018 -0.02662838 -0.02731185  0.00000000
                   Y  0.00000019  0.40633565  0.38417747 -0.37456626  0.40666240
                   Z  0.00000027 -0.24917955 -0.29088539  0.28360774 -0.28754935
  4   H            X -0.00000019  0.40633934  0.37456357  0.38417620 -0.40666240
                   Y  0.49805515  0.00000008 -0.02731185  0.02662838  0.00000000
                   Z -0.00000027 -0.24918235 -0.28360609 -0.29088461  0.28754935
  5   H            X  0.00000019 -0.40633428  0.37456498  0.38418017  0.40666240
                   Y -0.49805516  0.00000008 -0.02731185  0.02662838 -0.00000000
                   Z -0.00000027 -0.24917852  0.28360696  0.29088704  0.28754935

 TRANS. SAYVETZ    X  0.00000000 -0.00000000  0.00001477  0.00001515  0.00000000
                   Y -0.00000000  0.00000000  0.00001515 -0.00001477  0.00000000
                   Z  0.00000000 -0.00001125  0.00000000  0.00000000  0.00000000
               TOTAL  0.00000000  0.00001125  0.00002116  0.00002116  0.00000000

   ROT. SAYVETZ    X  0.00000000 -0.00000000  0.00019955 -0.00019455  0.00000000
                   Y  0.00000000  0.00000000  0.00019455  0.00019955  0.00000000
                   Z  0.00000000 -0.00000000 -0.00000000  0.00000000 -0.00000000
               TOTAL  0.00000000  0.00000000  0.00027869  0.00027869  0.00000000

 REFERENCE ON SAYVETZ CONDITIONS - A. SAYVETZ, J.CHEM.PHYS., 7, 383-389(1939).

 NOTE - THE MODES J,K ARE ORTHONORMALIZED ACCORDING TO
 SUM ON I   M(I) * (X(I,J)*X(I,K) + Y(I,J)*Y(I,K) + Z(I,J)*Z(I,K)) = DELTA(J,K)

  MODE FREQ(CM**-1)  SYMMETRY  RED. MASS  IR INTENS.
     1       5.757    A        3.160693    0.000001
     2       5.757    A        3.160693    0.000001
     3       0.096    A        3.206736    0.000000
     4      64.192    A        1.007825    0.000000
     5      70.022    A        1.012494    0.000000
     6      70.022    A        1.012494    0.000000
     7    1362.606    A        1.190261    1.000905
     8    1362.741    A        1.190195    1.001568
     9    1362.741    A        1.190195    1.001568
    10    1451.008    A        1.007825    0.000000
    11    1451.231    A        1.007825    0.000000
    12    3207.758    A        1.091931    0.023385
    13    3207.864    A        1.091947    0.023855
    14    3207.864    A        1.091947    0.023855
    15    3311.312    A        1.007825    0.000000

     -------------------------------
     THERMOCHEMISTRY AT T=  298.15 K
     -------------------------------

 USING IDEAL GAS, RIGID ROTOR, HARMONIC NORMAL MODE APPROXIMATIONS.
 P=  1.01325E+05 PASCAL.
 ALL FREQUENCIES ARE SCALED BY   1.00000
 THE MOMENTS OF INERTIA ARE (IN AMU*BOHR**2)
             11.33952            11.33952            11.34040
 THE ROTATIONAL SYMMETRY NUMBER IS  1.0
 THE ROTATIONAL CONSTANTS ARE (IN GHZ)
    159.00917   159.00917   158.99686
      7 -     15 VIBRATIONAL MODES ARE USED IN THERMOCHEMISTRY.
 THE HARMONIC ZERO POINT ENERGY IS (SCALED BY   1.000)
        0.045393 HARTREE/MOLECULE     9962.562714 CM**-1/MOLECULE 
       28.484425 KCAL/MOL              119.178833 KJ/MOL

               Q               LN Q
 ELEC.     1.00000E+00       0.000000
 TRANS.    2.52294E+06      14.740935
 ROT.      4.32265E+02       6.069040
 VIB.      1.00602E+00       0.006004
 TOT.      1.09715E+09      20.815979

              E         H         G         CV        CP        S
           KJ/MOL    KJ/MOL    KJ/MOL   J/MOL-K   J/MOL-K   J/MOL-K
 ELEC.      0.000     0.000     0.000     0.000     0.000     0.000
 TRANS.     3.718     6.197   -36.542    12.472    20.786   143.348
 ROT.       3.718     3.718   -15.045    12.472    12.472    62.932
 VIB.     119.279   119.279   119.164     2.252     2.252     0.385
 TOTAL    126.716   129.194    67.577    27.195    35.509   206.665
 VIB. THERMAL CORRECTION E(T)-E(0) = H(T)-H(0) =        99.870 J/MOL

              E         H         G         CV        CP        S
         KCAL/MOL  KCAL/MOL  KCAL/MOL CAL/MOL-K CAL/MOL-K CAL/MOL-K
 ELEC.      0.000     0.000     0.000     0.000     0.000     0.000
 TRANS.     0.889     1.481    -8.734     2.981     4.968    34.261
 ROT.       0.889     0.889    -3.596     2.981     2.981    15.041
 VIB.      28.508    28.508    28.481     0.538     0.538     0.092
 TOTAL     30.286    30.878    16.151     6.500     8.487    49.394
 VIB. THERMAL CORRECTION E(T)-E(0) = H(T)-H(0) =        23.869 CAL/MOL
 ......END OF NORMAL COORDINATE ANALYSIS......
 STEP CPU TIME =     0.01 TOTAL CPU TIME =          0.1 (      0.0 MIN)
 TOTAL WALL CLOCK TIME=          0.1 SECONDS, CPU UTILIZATION IS   100.00%
               580000  WORDS OF DYNAMIC MEMORY USED
 EXECUTION OF GAMESS TERMINATED NORMALLY Tue Dec 31 16:14:49 2019
 DDI: 263640 bytes (0.3 MB / 0 MWords) used by master data server.

 ----------------------------------------
 CPU timing information for all processes
 ========================================
 0: 0.44 + 0.20 = 0.64
 ----------------------------------------
 ddikick.x: exited gracefully.
unset echo
----- accounting info -----
Files used on the master node laptop were:
-rw-r--r-- 1 charnley charnley   11583 Dec 31 16:14 /home/charnley/scr/gamess_methane_vib.dat
-rw-r--r-- 1 charnley charnley     370 Dec 31 16:14 /home/charnley/scr/gamess_methane_vib.F05
-rw-r--r-- 1 charnley charnley       0 Dec 31 16:14 /home/charnley/scr/gamess_methane_vib.F08
-rw-r--r-- 1 charnley charnley 1636000 Dec 31 16:14 /home/charnley/scr/gamess_methane_vib.F10
-rw-r--r-- 1 charnley charnley   11212 Dec 31 16:14 /home/charnley/scr/gamess_methane_vib.rst
ls: No match.
ls: No match.
ls: No match.
Tue Dec 31 16:14:52 CET 2019
0.0u 0.0s 0:03.17 2.2% 0+0k 0+16io 0pf+0w
